
                                 *****************
                                 * O   R   C   A *
                                 *****************

                                            #,                                       
                                            ###                                      
                                            ####                                     
                                            #####                                    
                                            ######                                   
                                           ########,                                 
                                     ,,################,,,,,                         
                               ,,#################################,,                 
                          ,,##########################################,,             
                       ,#########################################, ''#####,          
                    ,#############################################,,   '####,        
                  ,##################################################,,,,####,       
                ,###########''''           ''''###############################       
              ,#####''   ,,,,##########,,,,          '''####'''          '####       
            ,##' ,,,,###########################,,,                        '##       
           ' ,,###''''                  '''############,,,                           
         ,,##''                                '''############,,,,        ,,,,,,###''
      ,#''                                            '''#######################'''  
     '                                                          ''''####''''         
             ,#######,   #######,   ,#######,      ##                                
            ,#'     '#,  ##    ##  ,#'     '#,    #''#        ,####,   ,####,        
            ##       ##  ##   ,#'  ##            #'  '#       #'       #'  '#        
            ##       ##  #######   ##           ,######,      #####,   #    #        
            '#,     ,#'  ##    ##  '#,     ,#' ,#      #,     #,   #   #,  ,#        
             '#######'   ##     ##  '#######'  #'      '#     '####' # '####'        



                #########################################################
                #                        -***-                          #
                #          Department of theory and spectroscopy        #
                #                                                       #
                #                      Frank Neese                      #
                #                                                       #
                #     Directorship, Architecture, Infrastructure        #
                #                    SHARK, DRIVERS                     #
                #        Core code/Algorithms in most modules           #
                #                                                       #
                #        Max Planck Institute fuer Kohlenforschung      #
                #                Kaiser Wilhelm Platz 1                 #
                #                 D-45470 Muelheim/Ruhr                 #
                #                      Germany                          #
                #                                                       #
                #                  All rights reserved                  #
                #                        -***-                          #
                #########################################################


                         Program Version 6.0.1  -  RELEASE   -


 With contributions from (in alphabetic order):
[Max-Planck-Institut fuer Kohlenforschung]                               
  Daniel Aravena         : Magnetic Suceptibility                        
  Michael Atanasov       : Ab Initio Ligand Field Theory (pilot matlab implementation)
  Alexander A. Auer      : GIAO ZORA, VPT2 properties, NMR spectrum      
  Ute Becker             : All parallelization in ORCA, NUMFREQ, NUMCALC 
  Giovanni Bistoni       : ED, misc. LED, open-shell LED, HFLD           
  Martin Brehm           : Molecular dynamics                            
  Dmytro Bykov           : pre 5.0 version of the SCF Hessian            
  Marcos Casanova-Páez   : Triplet and SCS-CIS(D). UHF-(DLPNO)-IP/EA/STEOM-CCSD. UHF-CVS-IP/STEOM-CCSD   
  Vijay G. Chilkuri      : MRCI spin determinant printing, contributions to CSF-ICE 
  Pauline Colinet        : FMM embedding                                 
  Dipayan Datta          : RHF DLPNO-CCSD density                        
  Achintya Kumar Dutta   : EOM-CC, STEOM-CC                              
  Nicolas Foglia         : Exact transition moments, OPA infrastructure, MCD improvements    
  Dmitry Ganyushin       : Spin-Orbit,Spin-Spin,Magnetic field MRCI      
  Miquel Garcia-Rates    : C-PCM and meta-GGA Hessian, CCSD/C-PCM, Gaussian charge scheme 
  Tiago L. C. Gouveia    : GS-ROHF, GS-ROCIS                             
  Yang Guo               : DLPNO-NEVPT2, F12-NEVPT2, CIM, IAO-localization        
  Andreas Hansen         : Spin unrestricted coupled pair/coupled cluster methods 
  Ingolf Harden          : AUTO-CI MPn and infrastructure                
  Benjamin Helmich-Paris : MC-RPA, TRAH-(SCF,CASSCF), AVAS, COSX integrals, SCF dyn. polar. 
  Lee Huntington         : MR-EOM, pCC                                   
  Robert Izsak           : Overlap fitted RIJCOSX, COSX-SCS-MP3, EOM     
  Riya Kayal             : Wick's Theorem for AUTO-CI, AUTO-CI UHF-CCSDT 
  Emily Kempfer          : AUTO-CI, RHF CISDT and CCSDT                  
  Christian Kollmar      : KDIIS, OOCD, Brueckner-CCSD(T), CCSD density, CASPT2, CASPT2-K, improved NEVPT2 
  Axel Koslowski         : Symmetry handling                             
  Simone Kossmann        : meta-GGA functionals, TD-DFT gradient, OOMP2, (MP2 Hessian; deprecated post 5.0) 
  Lucas Lang             : DCDCAS                                        
  Marvin Lechner         : AUTO-CI (C++ implementation), FIC-MRCC        
  Spencer Leger          : CASSCF response                               
  Dagmar Lenk            : GEPOL surface, SMD, ORCA-2-JSON               
  Dimitrios Liakos       : Extrapolation schemes; Compound Job, initial MDCI parallelization 
  Dimitrios Manganas     : Further ROCIS development; embedding schemes. LFT, Crystal Embedding 
  Dimitrios Pantazis     : SARC Basis sets                               
  Anastasios Papadopoulos: AUTO-CI, single reference methods and gradients 
  Taras Petrenko         : pre 6.0 DFT Hessian and TD-DFT gradient, (ASA, deprecated), ECA, 1-Electron XAS/XES, NRVS 
  Peter Pinski           : DLPNO-MP2, DLPNO-MP2 Gradient                 
  Christoph Reimann      : Effective Core Potentials                     
  Marius Retegan         : Local ZFS, SOC                                
  Christoph Riplinger    : Optimizer, TS searches, QM/MM, DLPNO-CCSD(T), (RO)-DLPNO pert. Triples 
  Michael Roemelt        : Original ROCIS implementation                 
  Masaaki Saitow         : Open-shell DLPNO-CCSD energy and density      
  Barbara Sandhoefer     : DKH picture change effects                    
  Kantharuban Sivalingam : CASSCF convergence/infrastructure, NEVPT2 and variants, FIC-MRCI 
  Bernardo de Souza      : ESD, SOC TD-DFT                               
  Georgi L. Stoychev     : AutoAux, RI-MP2 NMR, DLPNO-MP2 response, X2C  
  Van Anh Tran           : RI-MP2 g-tensors                              
  Willem Van den Heuvel  : Paramagnetic NMR                              
  Zikuan Wang            : NOTCH, Electric field optimization            
  Frank Wennmohs         : Technical directorship and infrastructure     
  Hang Xu                : AUTO-CI-Response properties                   
                                                                         
[FACCTs GmbH]                                                            
  Markus Bursch, Miquel Garcia-Rates, Christoph Riplinger, Bernardo de Souza, Georgi L. Stoychev 
                                                                 
  APM, Basis sets (HGBS, AHGBS, def-TZVP (Ac-Lr), def2-XVPD (La-Lu)), CI-OPT, improved COSX, DLPNO-Multilevel,           
  DOCKER, DRACO, updates on ESD, GOAT, IRC, LR-CPCM, MBIS, meta-GGA TD-DFT gradient, ML-optimized integration grids, 
  MM, NACMEs, nearIR, NEB, NEB-TS, NL-DFT gradient (VV10), 2- and 3-layer-ONIOM, interface openCOSMO-RS, QMMM,   
  Crystal-QMMM, SF, symmetry and pop. for TD-DFT, r2SCAN hybrids, SOLVATOR                                   
                                                                         
[Other institutions]                                                     
  V. Asgeirsson          : NEB                                           
  Christoph Bannwarth    : sTDA-DFT, sTD-DFT, PBEh-3c, B97-3c, D3        
  Sebastian Ehlert       : rSCAN, r2SCAN, r2SCAN-3c, D4, dhf basis sets  
  Marvin Friede          : D4 for Fr, Ra, Ac-Lr                          
  Lars Goerigk           : TD-DFT with DH, B97 family of functionals     
  Stefan Grimme          : VdW corrections, initial TS optimization, DFT functionals, gCP, sTDA/sTD-DF 
  Waldemar Hujo          : DFT-NL                                        
  H. Jonsson             : NEB                                           
  Holger Kruse           : gCP                                           
  Marcel Mueller         : wB97X-3c, vDZP basis set                      
  Hagen Neugebauer       : wr2SCAN                                       
  Tobias Risthaus        : range-separated hybrid DFT                    
  Lukas Wittmann         : regularized MP2, r2SCAN double-hybrids, wr2SCAN        
                                                                         
We gratefully acknowledge several colleagues who have allowed us to      
interface, adapt or use parts of their codes:                            
  Ed Valeev, F. Pavosevic, A. Kumar             : LibInt (2-el integral package), F12 methods 
  Garnet Chan, S. Sharma, J. Yang, R. Olivares  : DMRG                   
  Ulf Ekstrom                                   : XCFun DFT Library      
  Mihaly Kallay                                 : mrcc  (arbitrary order and MRCC methods)
  Frank Weinhold                                : gennbo (NPA and NBO analysis)           
  Simon Mueller                                 : openCOSMO-RS                            
  Christopher J. Cramer and Donald G. Truhlar   : smd solvation model                     
  S Lehtola, MJT Oliveira, MAL Marques          : LibXC Library                           
  Liviu Ungur et al                             : ANISO software                          


 Your calculation uses the libint2 library for the computation of 2-el integrals
 For citations please refer to: http://libint.valeyev.net

 Your ORCA version has been built with support for libXC version: 6.2.2
 For citations please refer to: https://libxc.gitlab.io

 This ORCA versions uses:
   CBLAS   interface :  Fast vector & matrix operations
   LAPACKE interface :  Fast linear algebra routines
   SCALAPACK package :  Parallel linear algebra routines
   Shared memory     :  Shared parallel matrices
   BLAS/LAPACK       :  OpenBLAS 0.3.27  USE64BITINT DYNAMIC_ARCH NO_AFFINITY Haswell SINGLE_THREADED
        Core in use  :  Haswell
   Copyright (c) 2011-2014, The OpenBLAS Project


NOTE: MaxCore=2000 MB was set to SCF,MP2,MDCI,CIPSI,MRCI and CIS
      => If you want to overwrite this, your respective input block should be placed after the MaxCore statement
Your calculation utilizes the atom-pairwise dispersion correction
based on EEQ partial charges (D4)


================================================================================

----- Orbital basis set information -----
Your calculation utilizes the basis: def2-QZVPPD
   F. Weigend and R. Ahlrichs, Phys. Chem. Chem. Phys. 7, 3297 (2005).
   D. Rappoport and F. Furche, J. Chem. Phys. 133, 134105 (2010)
   D. Rappoport, J. Chem. Phys. 155, 124102 (2021).

----- AuxJ basis set information -----
Your calculation utilizes the auxiliary basis: def2/J
   F. Weigend, Phys. Chem. Chem. Phys. 8, 1057 (2006).

----- AuxC basis set information -----
Your calculation utilizes the auxiliary basis: def2-QZVPPD/C
   A. Hellweg, C. Hattig, S. Hofener and W. Klopper, Theor. Chem. Acc. 117, 587 (2007).
  A. Hellweg and D. Rappoport; Phys. Chem. Chem. Phys. 17, 1010 (2015).

================================================================================
                                        WARNINGS
                       Please study these warnings very carefully!
================================================================================


WARNING: No MP2 level density has been requested!
         To calculate MP2 level properties use
         %mp2 Density relaxed end
         or
         %mp2 Density unrelaxed end
         Otherwise for double-hybrid DFT only the energy is correct!

WARNING: The frozen-core approximation is turned on by default for 
         the MP2 part of double-hybrid DFT.

================================================================================
                                       INPUT FILE
================================================================================
NAME = k2_frag.inp
|  1> # ------------------------------------
|  2> # KH_POPG (POPG1 & H3 ghosted); ion pair-pi
|  3> # ------------------------------------
|  4> ! SP revDSD-PBEP86-D4/2021 def2-QZVPPD RIJCOSX def2/J TightSCF CPCM
|  5> %basis
|  6>   basis   "def2-QZVPPD"
|  7>   aux     "def2/J"           # RI-J (for SCF/RIJCOSX)
|  8>   auxC    "def2-QZVPPD/C"    # required for RI-MP2 (AuxC)
|  9> end
| 10> %pal
| 11>     nprocs 10
| 12> end
| 13> %MaxCore 2000
| 14> %cpcm 
| 15>    epsilon 3.0 
| 16> end
| 17> *xyz 1 1
| 18> # POPG1 ghosted
| 19> C:    -1.57100     -0.80200      -4.02500
| 20> C:     2.50700     -3.28100      -5.75200
| 21> O:    -0.59700     -1.31300      -4.90300
| 22> O:     1.62100     -0.94100      -3.63200
| 23> O:     0.35900     -3.18800      -3.43900
| 24> O:     1.37000     -2.45300      -5.70000
| 25> P:     0.73700     -1.98500      -4.28600
| 26> H:    -2.39900     -0.38800      -4.60100
| 27> H:    -1.12900     -0.01800      -3.41000
| 28> H:    -1.93900     -1.60300      -3.38400
| 29> H:     2.76800     -3.47600      -6.79200
| 30> H:     3.34100     -2.78400      -5.25600
| 31> H:     2.29400     -4.22300      -5.24800
| 32> # Lys2
| 33> C      3.71500     -4.03000       0.83000
| 34> C      3.56200     -3.38200      -0.54200
| 35> H      4.36800     -2.65200      -0.70300
| 36> H      2.64500     -2.76900      -0.57000
| 37> C      3.54700     -4.35600      -1.72200
| 38> H      3.49600     -3.77200      -2.65400
| 39> H      4.49500     -4.91800      -1.76300
| 40> C      2.42400     -5.38500      -1.69000
| 41> H      2.55400     -6.11100      -0.87400
| 42> H      2.38200     -5.94600      -2.63300
| 43> N      1.10000     -4.74200      -1.50100
| 44> H      1.07600     -4.22300      -0.61400
| 45> H      0.85200     -4.05700      -2.30300
| 46> H      0.34900     -5.43600      -1.45800
| 47> H      2.91400     -4.75200       0.98200
| 48> H      4.67800     -4.53800       0.88600
| 49> H      3.66500     -3.26200       1.60200
| 50> # His3 ghosted
| 51> C:     1.03000      0.64700       2.54700
| 52> N:     0.51600     -0.95600       0.64300
| 53> N:     1.24400      0.17400      -1.10300
| 54> H:     1.49300      0.34300      -2.08200
| 55> C:     1.00100      0.26200       1.07200
| 56> C:     0.68300     -0.96800      -0.66600
| 57> H:     0.42300     -1.77800      -1.34700
| 58> C:     1.45600      0.97500      -0.01600
| 59> H:     1.90400      1.96100      -0.10300
| 60> H:     1.45100      1.64600       2.65400
| 61> H:     0.01600      0.63500       2.94500
| 62> H:     1.64400     -0.06700       3.09600
| 63> *
| 64> 
| 65> 
| 66> 
| 67>                          ****END OF INPUT****
================================================================================

                       ****************************
                       * Single Point Calculation *
                       ****************************

---------------------------------
CARTESIAN COORDINATES (ANGSTROEM)
---------------------------------
  C     -1.571000   -0.802000   -4.025000
  C      2.507000   -3.281000   -5.752000
  O     -0.597000   -1.313000   -4.903000
  O      1.621000   -0.941000   -3.632000
  O      0.359000   -3.188000   -3.439000
  O      1.370000   -2.453000   -5.700000
  P      0.737000   -1.985000   -4.286000
  H     -2.399000   -0.388000   -4.601000
  H     -1.129000   -0.018000   -3.410000
  H     -1.939000   -1.603000   -3.384000
  H      2.768000   -3.476000   -6.792000
  H      3.341000   -2.784000   -5.256000
  H      2.294000   -4.223000   -5.248000
  C      3.715000   -4.030000    0.830000
  C      3.562000   -3.382000   -0.542000
  H      4.368000   -2.652000   -0.703000
  H      2.645000   -2.769000   -0.570000
  C      3.547000   -4.356000   -1.722000
  H      3.496000   -3.772000   -2.654000
  H      4.495000   -4.918000   -1.763000
  C      2.424000   -5.385000   -1.690000
  H      2.554000   -6.111000   -0.874000
  H      2.382000   -5.946000   -2.633000
  N      1.100000   -4.742000   -1.501000
  H      1.076000   -4.223000   -0.614000
  H      0.852000   -4.057000   -2.303000
  H      0.349000   -5.436000   -1.458000
  H      2.914000   -4.752000    0.982000
  H      4.678000   -4.538000    0.886000
  H      3.665000   -3.262000    1.602000
  C      1.030000    0.647000    2.547000
  N      0.516000   -0.956000    0.643000
  N      1.244000    0.174000   -1.103000
  H      1.493000    0.343000   -2.082000
  C      1.001000    0.262000    1.072000
  C      0.683000   -0.968000   -0.666000
  H      0.423000   -1.778000   -1.347000
  C      1.456000    0.975000   -0.016000
  H      1.904000    1.961000   -0.103000
  H      1.451000    1.646000    2.654000
  H      0.016000    0.635000    2.945000
  H      1.644000   -0.067000    3.096000

----------------------------
CARTESIAN COORDINATES (A.U.)
----------------------------
  NO LB      ZA    FRAG     MASS         X           Y           Z
   0 C     0.0000    0     0.000   -2.968760   -1.515560   -7.606148
   1 C     0.0000    0     0.000    4.737543   -6.200191  -10.869705
   2 O     0.0000    0     0.000   -1.128167   -2.481210   -9.265327
   3 O     0.0000    0     0.000    3.063246   -1.778232   -6.863485
   4 O     0.0000    0     0.000    0.678412   -6.024447   -6.498768
   5 O     0.0000    0     0.000    2.588925   -4.635498  -10.771439
   6 P     0.0000    0     0.000    1.392728   -3.751106   -8.099366
   7 H     0.0000    0     0.000   -4.533453   -0.733214   -8.694630
   8 H     0.0000    0     0.000   -2.133501   -0.034015   -6.443966
   9 H     0.0000    0     0.000   -3.664179   -3.029231   -6.394833
  10 H     0.0000    0     0.000    5.230762   -6.568688  -12.835020
  11 H     0.0000    0     0.000    6.313575   -5.260998   -9.932401
  12 H     0.0000    0     0.000    4.335032   -7.980313   -9.917283
  13 C     6.0000    0    12.011    7.020333   -7.615596    1.568473
  14 C     6.0000    0    12.011    6.731204   -6.391054   -1.024232
  15 H     1.0000    0     1.008    8.254324   -5.011554   -1.328477
  16 H     1.0000    0     1.008    4.998326   -5.232652   -1.077144
  17 C     6.0000    0    12.011    6.702859   -8.231647   -3.254108
  18 H     1.0000    0     1.008    6.606483   -7.128047   -5.015333
  19 H     1.0000    0     1.008    8.494319   -9.293673   -3.331587
  20 C     6.0000    0    12.011    4.580696  -10.176175   -3.193637
  21 H     1.0000    0     1.008    4.826361  -11.548116   -1.651621
  22 H     1.0000    0     1.008    4.501328  -11.236312   -4.975649
  23 N     7.0000    0    14.007    2.078699   -8.961081   -2.836479
  24 H     1.0000    0     1.008    2.033345   -7.980313   -1.160292
  25 H     1.0000    0     1.008    1.610047   -7.666619   -4.352039
  26 H     1.0000    0     1.008    0.659514  -10.272551   -2.755221
  27 H     1.0000    0     1.008    5.506662   -8.979979    1.855711
  28 H     1.0000    0     1.008    8.840139   -8.575577    1.674297
  29 H     1.0000    0     1.008    6.925846   -6.164287    3.027341
  30 C     0.0000    0     0.000    1.946418    1.222653    4.813132
  31 N     0.0000    0     0.000    0.975099   -1.806578    1.215094
  32 N     0.0000    0     0.000    2.350819    0.328812   -2.084368
  33 H     0.0000    0     0.000    2.821361    0.648176   -3.934410
  34 C     0.0000    0     0.000    1.891616    0.495108    2.025786
  35 C     0.0000    0     0.000    1.290683   -1.829255   -1.258558
  36 H     0.0000    0     0.000    0.799354   -3.359933   -2.545461
  37 C     0.0000    0     0.000    2.751441    1.842483   -0.030236
  38 H     0.0000    0     0.000    3.598039    3.705753   -0.194642
  39 H     0.0000    0     0.000    2.741993    3.110489    5.015333
  40 H     0.0000    0     0.000    0.030236    1.199976    5.565243
  41 H     0.0000    0     0.000    3.106710   -0.126612    5.850592

--------------------------------
INTERNAL COORDINATES (ANGSTROEM)
--------------------------------
 C      0   0   0     0.000000000000     0.00000000     0.00000000
 C      1   0   0     5.075239304703     0.00000000     0.00000000
 O      1   2   0     1.407366689957    18.96374866     0.00000000
 O      3   1   2     2.583282601652   103.59048648   316.70599790
 O      3   1   2     2.563758373950    99.63463830    18.25919790
 O      2   1   3     1.407500266430    18.37710513     6.56203809
 P      4   3   1     1.516280976600    35.71510685   122.68165096
 H      1   2   6     1.090300875905   128.01776603    20.37517395
 H      1   2   6     1.090066511732   102.56095676   252.99521656
 H      1   2   6     1.089911005541    96.45665187   141.32587409
 H      2   1   3     1.089837602581   127.19600056   349.23588494
 H      2   1   3     1.090220619875   103.72068458   117.18714192
 H      2   1   3     1.089380098955    96.19043268   228.99967919
 C      5   3   1     5.495094266707   141.57483152   282.96568671
 C     14   5   3     1.525023606375    34.38089426   307.85119427
 H     15  14   5     1.099298412625   109.89936940   165.11519190
 H     15  14   5     1.103377541914   110.01564155    51.55101503
 C     15  14   5     1.530131040140   115.10649683   287.92548151
 H     18  15  14     1.101036330009   108.39733489   183.48553614
 H     18  15  14     1.102827729067   110.15902640   299.26571632
 C     18  15  14     1.523480882716   114.89576545    60.01042940
 H     21  18  15     1.099923633713   111.97946095   291.67557640
 H     21  18  15     1.098059196947   110.80771012   171.37384543
 N     21  18  15     1.483962937543   111.57277243    51.93639515
 H     24  21  18     1.027962061557   110.45627768   299.88810703
 H     24  21  18     1.083481887251   112.57456291    61.10013684
 H     24  21  18     1.023467635053   111.48261983   181.31702332
 H     14   5   3     1.089031220856    76.16173195   142.33325696
 H     14   5   3     1.090215116388   130.59933429   246.30066763
 H     14   5   3     1.090095408668   114.46979456    36.88347884
 C     30  14   5     4.807965370092   137.48750208     5.78610779
 N     31  30  14     2.541460406931    56.68671457     6.73560506
 N     32  31  30     2.203497220330   101.73315103   256.44198380
 H     33  32  31     1.024208474872   157.27071974   172.77572570
 C     32  31  30     1.379416543325    30.56695686   254.52027642
 C     32  31  30     1.319664351265   136.32455402   257.43758439
 H     36  32  31     1.089706841311   126.61635166   177.83824242
 C     33  32  31     1.366789669262    73.83578165   358.86568849
 H     38  33  32     1.086493902422   122.14836040   179.96309637
 H     31  30  14     1.089353477986   123.57953903   238.96832747
 H     31  30  14     1.089377804070   124.95829208    76.56346087
 H     31  30  14     1.090042659716    42.07554730   156.89699258

---------------------------
INTERNAL COORDINATES (A.U.)
---------------------------
 C      0   0   0     0.000000000000     0.00000000     0.00000000
 C      1   0   0     9.590812350001     0.00000000     0.00000000
 O      1   2   0     2.659537614022    18.96374866     0.00000000
 O      3   1   2     4.881696643647   103.59048648   316.70599790
 O      3   1   2     4.844801200313    99.63463830    18.25919790
 O      2   1   3     2.659790036974    18.37710513     6.56203809
 P      4   3   1     2.865355787849    35.71510685   122.68165096
 H      1   2   6     2.060370059036   128.01776603    20.37517395
 H      1   2   6     2.059927174933   102.56095676   252.99521656
 H      1   2   6     2.059633310820    96.45665187   141.32587409
 H      2   1   3     2.059494599328   127.19600056   349.23588494
 H      2   1   3     2.060218397117   103.72068458   117.18714192
 H      2   1   3     2.058630042770    96.19043268   228.99967919
 C      5   3   1    10.384223244158   141.57483152   282.96568671
 C     14   5   3     2.881876963813    34.38089426   307.85119427
 H     15  14   5     2.077372939316   109.89936940   165.11519190
 H     15  14   5     2.085081376537   110.01564155    51.55101503
 C     15  14   5     2.891528614877   115.10649683   287.92548151
 H     18  15  14     2.080657127215   108.39733489   183.48553614
 H     18  15  14     2.084042380832   110.15902640   299.26571632
 C     18  15  14     2.878961638597   114.89576545    60.01042940
 H     21  18  15     2.078554435945   111.97946095   291.67557640
 H     21  18  15     2.075031161063   110.80771012   171.37384543
 N     21  18  15     2.804283544845   111.57277243    51.93639515
 H     24  21  18     1.942566772403   110.45627768   299.88810703
 H     24  21  18     2.047484037968   112.57456291    61.10013684
 H     24  21  18     1.934073537181   111.48261983   181.31702332
 H     14   5   3     2.057970758709    76.16173195   142.33325696
 H     14   5   3     2.060207997034   130.59933429   246.30066763
 H     14   5   3     2.059981782228   114.46979456    36.88347884
 C     30  14   5     9.085737810850   137.48750208     5.78610779
 N     31  30  14     4.802664149304    56.68671457     6.73560506
 N     32  31  30     4.164006283280   101.73315103   256.44198380
 H     33  32  31     1.935473521550   157.27071974   172.77572570
 C     32  31  30     2.606719491485    30.56695686   254.52027642
 C     32  31  30     2.493804212590   136.32455402   257.43758439
 H     36  32  31     2.059247496338   126.61635166   177.83824242
 C     33  32  31     2.582858157577    73.83578165   358.86568849
 H     38  33  32     2.053175921753   122.14836040   179.96309637
 H     31  30  14     2.058579736428   123.57953903   238.96832747
 H     31  30  14     2.058625706064   124.95829208    76.56346087
 H     31  30  14     2.059882101154    42.07554730   156.89699258

---------------------
BASIS SET INFORMATION
---------------------
There are 5 groups of distinct atoms

 Group   1 Type C   : 16s8p4d2f1g contracted to 8s4p4d2f1g pattern {82111111/5111/1111/11/1}
 Group   2 Type O   : 16s9p4d2f1g contracted to 8s5p4d2f1g pattern {82111111/51111/1111/11/1}
 Group   3 Type P   : 21s14p5d2f1g contracted to 10s6p5d2f1g pattern {10311111111/821111/11111/11/1}
 Group   4 Type H   : 7s4p2d1f contracted to 4s4p2d1f pattern {4111/1111/11/1}
 Group   5 Type N   : 16s8p4d2f1g contracted to 8s4p4d2f1g pattern {82111111/5111/1111/11/1}

Atom   0C    basis set group =>   1
Atom   1C    basis set group =>   1
Atom   2O    basis set group =>   2
Atom   3O    basis set group =>   2
Atom   4O    basis set group =>   2
Atom   5O    basis set group =>   2
Atom   6P    basis set group =>   3
Atom   7H    basis set group =>   4
Atom   8H    basis set group =>   4
Atom   9H    basis set group =>   4
Atom  10H    basis set group =>   4
Atom  11H    basis set group =>   4
Atom  12H    basis set group =>   4
Atom  13C    basis set group =>   1
Atom  14C    basis set group =>   1
Atom  15H    basis set group =>   4
Atom  16H    basis set group =>   4
Atom  17C    basis set group =>   1
Atom  18H    basis set group =>   4
Atom  19H    basis set group =>   4
Atom  20C    basis set group =>   1
Atom  21H    basis set group =>   4
Atom  22H    basis set group =>   4
Atom  23N    basis set group =>   5
Atom  24H    basis set group =>   4
Atom  25H    basis set group =>   4
Atom  26H    basis set group =>   4
Atom  27H    basis set group =>   4
Atom  28H    basis set group =>   4
Atom  29H    basis set group =>   4
Atom  30C    basis set group =>   1
Atom  31N    basis set group =>   5
Atom  32N    basis set group =>   5
Atom  33H    basis set group =>   4
Atom  34C    basis set group =>   1
Atom  35C    basis set group =>   1
Atom  36H    basis set group =>   4
Atom  37C    basis set group =>   1
Atom  38H    basis set group =>   4
Atom  39H    basis set group =>   4
Atom  40H    basis set group =>   4
Atom  41H    basis set group =>   4
---------------------------------
AUXILIARY/J BASIS SET INFORMATION
---------------------------------
There are 5 groups of distinct atoms

 Group   1 Type C   : 12s5p4d2f1g contracted to 6s4p3d1f1g pattern {711111/2111/211/2/1}
 Group   2 Type O   : 12s5p4d2f1g contracted to 6s4p3d1f1g pattern {711111/2111/211/2/1}
 Group   3 Type P   : 14s5p5d2f1g contracted to 8s4p3d1f1g pattern {71111111/2111/311/2/1}
 Group   4 Type H   : 5s2p1d contracted to 3s1p1d pattern {311/2/1}
 Group   5 Type N   : 12s5p4d2f1g contracted to 6s4p3d1f1g pattern {711111/2111/211/2/1}

Atom   0C    basis set group =>   1
Atom   1C    basis set group =>   1
Atom   2O    basis set group =>   2
Atom   3O    basis set group =>   2
Atom   4O    basis set group =>   2
Atom   5O    basis set group =>   2
Atom   6P    basis set group =>   3
Atom   7H    basis set group =>   4
Atom   8H    basis set group =>   4
Atom   9H    basis set group =>   4
Atom  10H    basis set group =>   4
Atom  11H    basis set group =>   4
Atom  12H    basis set group =>   4
Atom  13C    basis set group =>   1
Atom  14C    basis set group =>   1
Atom  15H    basis set group =>   4
Atom  16H    basis set group =>   4
Atom  17C    basis set group =>   1
Atom  18H    basis set group =>   4
Atom  19H    basis set group =>   4
Atom  20C    basis set group =>   1
Atom  21H    basis set group =>   4
Atom  22H    basis set group =>   4
Atom  23N    basis set group =>   5
Atom  24H    basis set group =>   4
Atom  25H    basis set group =>   4
Atom  26H    basis set group =>   4
Atom  27H    basis set group =>   4
Atom  28H    basis set group =>   4
Atom  29H    basis set group =>   4
Atom  30C    basis set group =>   1
Atom  31N    basis set group =>   5
Atom  32N    basis set group =>   5
Atom  33H    basis set group =>   4
Atom  34C    basis set group =>   1
Atom  35C    basis set group =>   1
Atom  36H    basis set group =>   4
Atom  37C    basis set group =>   1
Atom  38H    basis set group =>   4
Atom  39H    basis set group =>   4
Atom  40H    basis set group =>   4
Atom  41H    basis set group =>   4
---------------------------------
AUXILIARY/C BASIS SET INFORMATION
---------------------------------
There are 5 groups of distinct atoms

 Group   1 Type C   : 10s9p8d6f3g1h contracted to 10s9p8d6f3g1h pattern {1111111111/111111111/11111111/111111/111/1}
 Group   2 Type O   : 10s9p8d6f3g1h contracted to 10s9p8d6f3g1h pattern {1111111111/111111111/11111111/111111/111/1}
 Group   3 Type P   : 13s11p10d7f3g1h contracted to 13s11p10d7f3g1h pattern {1111111111111/11111111111/1111111111/1111111/111/1}
 Group   4 Type H   : 7s5p4d2f1g contracted to 7s5p4d2f1g pattern {1111111/11111/1111/11/1}
 Group   5 Type N   : 10s9p8d6f3g1h contracted to 10s9p8d6f3g1h pattern {1111111111/111111111/11111111/111111/111/1}

Atom   0C    basis set group =>   1
Atom   1C    basis set group =>   1
Atom   2O    basis set group =>   2
Atom   3O    basis set group =>   2
Atom   4O    basis set group =>   2
Atom   5O    basis set group =>   2
Atom   6P    basis set group =>   3
Atom   7H    basis set group =>   4
Atom   8H    basis set group =>   4
Atom   9H    basis set group =>   4
Atom  10H    basis set group =>   4
Atom  11H    basis set group =>   4
Atom  12H    basis set group =>   4
Atom  13C    basis set group =>   1
Atom  14C    basis set group =>   1
Atom  15H    basis set group =>   4
Atom  16H    basis set group =>   4
Atom  17C    basis set group =>   1
Atom  18H    basis set group =>   4
Atom  19H    basis set group =>   4
Atom  20C    basis set group =>   1
Atom  21H    basis set group =>   4
Atom  22H    basis set group =>   4
Atom  23N    basis set group =>   5
Atom  24H    basis set group =>   4
Atom  25H    basis set group =>   4
Atom  26H    basis set group =>   4
Atom  27H    basis set group =>   4
Atom  28H    basis set group =>   4
Atom  29H    basis set group =>   4
Atom  30C    basis set group =>   1
Atom  31N    basis set group =>   5
Atom  32N    basis set group =>   5
Atom  33H    basis set group =>   4
Atom  34C    basis set group =>   1
Atom  35C    basis set group =>   1
Atom  36H    basis set group =>   4
Atom  37C    basis set group =>   1
Atom  38H    basis set group =>   4
Atom  39H    basis set group =>   4
Atom  40H    basis set group =>   4
Atom  41H    basis set group =>   4


           ************************************************************
           *        Program running with 10 parallel MPI-processes    *
           *              working on a common directory               *
           ************************************************************
------------------------------------------------------------------------------
                             ORCA STARTUP CALCULATIONS
                           -- RI-GTO INTEGRALS CHOSEN --
------------------------------------------------------------------------------
------------------------------------------------------------------------------
                   ___                                                        
                  /   \      - P O W E R E D   B Y -                         
                 /     \                                                     
                 |  |  |   _    _      __       _____    __    __             
                 |  |  |  | |  | |    /  \     |  _  \  |  |  /  |          
                  \  \/   | |  | |   /    \    | | | |  |  | /  /          
                 / \  \   | |__| |  /  /\  \   | |_| |  |  |/  /          
                |  |  |   |  __  | /  /__\  \  |    /   |      \           
                |  |  |   | |  | | |   __   |  |    \   |  |\   \          
                \     /   | |  | | |  |  |  |  | |\  \  |  | \   \       
                 \___/    |_|  |_| |__|  |__|  |_| \__\ |__|  \__/        
                                                                              
                      - O R C A' S   B I G   F R I E N D -                    
                                      &                                       
                       - I N T E G R A L  F E E D E R -                       
                                                                              
 v1 FN, 2020, v2 2021, v3 2022-2024                                           
------------------------------------------------------------------------------


----------------------
SHARK INTEGRAL PACKAGE
----------------------

Number of atoms                             ...     42
Number of basis functions                   ...   1951
Number of shells                            ...    615
Maximum angular momentum                    ...      4
Integral batch strategy                     ... SHARK/LIBINT Hybrid
RI-J (if used) integral strategy            ... SPLIT-RIJ (Revised 2003 algorithm where possible)
Printlevel                                  ...      1
Contraction scheme used                     ... SEGMENTED contraction
Prescreening option                         ... SCHWARTZ
   Thresh                                   ... 2.500e-11
   Tcut                                     ... 2.500e-12
   Tpresel                                  ... 2.500e-12 
Coulomb Range Separation                    ... NOT USED
Exchange Range Separation                   ... NOT USED
Multipole approximations                    ... NOT USED
Finite Nucleus Model                        ... NOT USED
CABS basis                                  ... NOT available
Auxiliary Coulomb fitting basis             ... AVAILABLE
   # of basis functions in Aux-J            ...   1148
   # of shells in Aux-J                     ...    392
   Maximum angular momentum in Aux-J        ...      4
Auxiliary J/K fitting basis                 ... NOT available
Auxiliary Correlation fitting basis         ... AVAILABLE
   # of basis functions in Aux-C            ...   4412
   # of shells in Aux-C                     ...   1130
   Maximum angular momentum in Aux-C        ...      5
Auxiliary 'external' fitting basis          ... NOT available

Checking pre-screening integrals            ... done (  0.0 sec) Dimension = 615
Check shell pair data                       ... done (  0.0 sec)
Shell pair information
Shell pair cut-off parameter TPreSel        ...   2.5e-12
Total number of shell pairs                 ...    189420
Shell pairs after pre-screening             ...    127572
Total number of primitive shell pairs       ...    415389
Primitive shell pairs kept                  ...    205735
          la=0 lb=0:  19545 shell pairs
          la=1 lb=0:  30450 shell pairs
          la=1 lb=1:  11880 shell pairs
          la=2 lb=0:  19243 shell pairs
          la=2 lb=1:  15255 shell pairs
          la=2 lb=2:   4817 shell pairs
          la=3 lb=0:   8217 shell pairs
          la=3 lb=1:   6830 shell pairs
          la=3 lb=2:   4084 shell pairs
          la=3 lb=3:    834 shell pairs
          la=4 lb=0:   2515 shell pairs
          la=4 lb=1:   2075 shell pairs
          la=4 lb=2:   1254 shell pairs
          la=4 lb=3:    487 shell pairs
          la=4 lb=4:     86 shell pairs

Calculating one electron integrals          ... done (  0.3 sec)
Calculating RI/J V-Matrix + Cholesky decomp.... done (  0.0 sec)
Calculating RI/C V-Matrix + Cholesky decomp.... done (  0.8 sec)
Calculating Nuclear repulsion               ... done (  0.0 sec) ENN=    202.282085670042 Eh

Diagonalization of the overlap matrix:
Smallest eigenvalue                        ... 1.988e-08
Time for diagonalization                   ...    0.606 sec
Threshold for overlap eigenvalues          ... 1.000e-07
Number of eigenvalues below threshold      ... 5
Smallest eigenvalue above threshold        ... 1.176e-07

IMPORTANT:
Smallest eigenvalue of S below the DiffSThresh (1.000e-06) while
Thresh>1e-12 and/or TCut>1e-13! In order to avoid SCF convergence issues,
Thresh will be set to at least 1e-12 and TCut to at least 1e-13.
This can be turned off by adding %SCF DiffSThresh -1 END to the input.

Time for construction of square roots      ...    0.390 sec
Total time needed                          ...    1.024 sec

-------------------
DFT GRID GENERATION
-------------------

General Integration Accuracy     IntAcc      ... 4.388
Radial Grid Type                 RadialGrid  ... OptM3 with GC (2021)
Angular Grid (max. ang.)         AngularGrid ... 4 (Lebedev-302)
Angular grid pruning method      GridPruning ... 4 (adaptive)
Weight generation scheme         WeightScheme... mBecke (2022)
Basis function cutoff            BFCut       ... 1.0000e-11
Integration weight cutoff        WCut        ... 1.0000e-14
Partially contracted basis set               ... off
Rotationally invariant grid construction     ... off
Angular grids for H and He will be reduced by one unit
Diffuse basis detected: some atoms will have their outermost
                        angular grid increased by 1.

Total number of grid points                  ...   193972
Total number of batches                      ...     3054
Average number of points per batch           ...       63
Average number of grid points per atom       ...     4618

--------------------
COSX GRID GENERATION
--------------------

GRIDX 1
-------
General Integration Accuracy     IntAcc      ... 3.816
Radial Grid Type                 RadialGrid  ... OptM3 with GC (2021)
Angular Grid (max. ang.)         AngularGrid ... 1 (Lebedev-50)
Angular grid pruning method      GridPruning ... 4 (adaptive)
Weight generation scheme         WeightScheme... mBecke (2022)
Basis function cutoff            BFCut       ... 1.0000e-11
Integration weight cutoff        WCut        ... 1.0000e-14
Partially contracted basis set               ... on
Rotationally invariant grid construction     ... off
Angular grids for H and He will be reduced by one unit
Diffuse basis detected: some atoms will have their outermost
                        angular grid increased by 1.

Total number of grid points                  ...    25187
Total number of batches                      ...      220
Average number of points per batch           ...      114
Average number of grid points per atom       ...      600
UseSFitting                                  ... on

GRIDX 2
-------
General Integration Accuracy     IntAcc      ... 4.020
Radial Grid Type                 RadialGrid  ... OptM3 with GC (2021)
Angular Grid (max. ang.)         AngularGrid ... 2 (Lebedev-110)
Angular grid pruning method      GridPruning ... 4 (adaptive)
Weight generation scheme         WeightScheme... mBecke (2022)
Basis function cutoff            BFCut       ... 1.0000e-11
Integration weight cutoff        WCut        ... 1.0000e-14
Partially contracted basis set               ... on
Rotationally invariant grid construction     ... off
Angular grids for H and He will be reduced by one unit
Diffuse basis detected: some atoms will have their outermost
                        angular grid increased by 1.

Total number of grid points                  ...    55596
Total number of batches                      ...      457
Average number of points per batch           ...      121
Average number of grid points per atom       ...     1324
UseSFitting                                  ... on

GRIDX 3
-------
General Integration Accuracy     IntAcc      ... 4.338
Radial Grid Type                 RadialGrid  ... OptM3 with GC (2021)
Angular Grid (max. ang.)         AngularGrid ... 3 (Lebedev-194)
Angular grid pruning method      GridPruning ... 4 (adaptive)
Weight generation scheme         WeightScheme... mBecke (2022)
Basis function cutoff            BFCut       ... 1.0000e-11
Integration weight cutoff        WCut        ... 1.0000e-14
Partially contracted basis set               ... on
Rotationally invariant grid construction     ... off
Angular grids for H and He will be reduced by one unit
Diffuse basis detected: some atoms will have their outermost
                        angular grid increased by 1.

Total number of grid points                  ...   123957
Total number of batches                      ...      991
Average number of points per batch           ...      125
Average number of grid points per atom       ...     2951
UseSFitting                                  ... on
Initializing property integral containers    ... done (  0.0 sec)

SHARK setup successfully completed in  12.2 seconds

Maximum memory used throughout the entire STARTUP-calculation: 298.4 MB


           ************************************************************
           *        Program running with 10 parallel MPI-processes    *
           *              working on a common directory               *
           ************************************************************
-------------------------------------------------------------------------------
                                 ORCA GUESS
                   Start orbitals & Density for SCF / CASSCF
-------------------------------------------------------------------------------

------------
SCF SETTINGS
------------
Hamiltonian:
 Density Functional     Method          .... DFT(GTOs)
 Exchange Functional    Exchange        .... PBE
   PBE kappa parameter   XKappa         ....  0.804000
   PBE mue parameter    XMuePBE         ....  0.219520
 Correlation Functional Correlation     .... P86
 LDA part of GGA corr.  LDAOpt          .... VWN-5
 Gradients option       PostSCFGGA      .... off
 Hybrid DFT is turned on
   Fraction HF Exchange ScalHFX         ....  0.690000
   Scaling of DF-GGA-X  ScalDFX         ....  0.310000
   Scaling of DF-GGA-C  ScalDFC         ....  0.422400
   Scaling of DF-LDA-C  ScalLDAC        ....  0.422400
   Perturbative correction              ....  1.000000
 RI-approximation to the Coulomb term is turned on
   Number of AuxJ basis functions       .... 1148
   RIJ-COSX (HFX calculated with COS-X)).... on


General Settings:
 Integral files         IntName         .... k2_frag
 Hartree-Fock type      HFTyp           .... RHF
 Total Charge           Charge          ....    1
 Multiplicity           Mult            ....    1
 Number of Electrons    NEL             ....   42
 Basis Dimension        Dim             .... 1951
 Nuclear Repulsion      ENuc            ....    202.2820856700 Eh

Convergence Acceleration:
 AO-DIIS                CNVDIIS         .... on
   Start iteration      DIISMaxIt       ....    12
   Startup error        DIISStart       ....  0.200000
   # of expansion vecs  DIISMaxEq       ....     5
   Bias factor          DIISBfac        ....   1.050
   Max. coefficient     DIISMaxC        ....  10.000
 MO-DIIS                CNVKDIIS        .... off
 Trust-Rad. Augm. Hess. CNVTRAH         .... auto
   Auto Start mean grad. ratio tolernc. ....  1.125000
   Auto Start start iteration           ....    50
   Auto Start num. interpolation iter.  ....    10
   Max. Number of Micro iterations      ....    24
   Max. Number of Macro iterations      .... Maxiter - #DIIS iter
   Number of Davidson start vectors     ....     2
   Converg. threshold    (grad. norm)   ....   1.000e-05
   Grad. Scal. Fac. for Micro threshold ....   0.100
   Minimum threshold for Micro iter.    ....   1.000e-02
   NR start threshold (gradient norm)   ....   1.000e-04
   Initial trust radius                 ....   0.400
   Minimum AH scaling param. (alpha)    ....   1.000
   Maximum AH scaling param. (alpha)    .... 1000.000
   Quad. conv. algorithm                .... NR
   White noise on init. David. guess    .... on
   Maximum white noise                  ....   0.010
   Pseudo random numbers                .... off
   Inactive MOs                         .... canonical
   Orbital update algorithm             .... Taylor
   Preconditioner                       .... Diag
   Full preconditioner red. dimension   ....   250
 SOSCF                  CNVSOSCF        .... on
   Start iteration      SOSCFMaxIt      ....   150
   Startup grad/error   SOSCFStart      ....  0.003300
   Hessian update       SOSCFHessUp     .... L-BFGS
 Level Shifting         CNVShift        .... on
   Level shift para.    LevelShift      ....    0.2500
   Turn off err/grad.   ShiftErr        ....    0.0010
 Zerner damping         CNVZerner       .... off
 Static damping         CNVDamp         .... on
   Fraction old density DampFac         ....    0.7000
   Max. Damping (<1)    DampMax         ....    0.9800
   Min. Damping (>=0)   DampMin         ....    0.0000
   Turn off err/grad.   DampErr         ....    0.1000

SCF Procedure:
 Maximum # iterations   MaxIter         ....   125
 SCF integral mode      SCFMode         .... Direct
   Integral package                     .... SHARK and LIBINT hybrid scheme
 Reset frequency        DirectResetFreq ....    20
 Integral Threshold     Thresh          ....  1.000e-12 Eh
 Primitive CutOff       TCut            ....  1.000e-13 Eh

Convergence Tolerance:
 Convergence Check Mode ConvCheckMode   .... Total+1el-Energy
 Convergence forced     ConvForced      .... 0
 Energy Change          TolE            ....  1.000e-08 Eh
 1-El. energy change                    ....  1.000e-05 Eh
 Orbital Gradient       TolG            ....  1.000e-05
 Orbital Rotation angle TolX            ....  1.000e-05
 DIIS Error             TolErr          ....  5.000e-07

------------------------------
INITIAL GUESS: MODEL POTENTIAL
------------------------------
Loading Hartree-Fock densities                     ... done
Calculating cut-offs                               ... done
Initializing the effective Hamiltonian             ... done
Setting up the integral package (SHARK)            ... done
Starting the Coulomb interaction                   ... done (   0.8 sec)
Making the grid                                    ... done (   0.4 sec)
Mapping shells                                     ... done
Starting the XC term evaluation                    ... done (   1.4 sec)
  promolecular density results
     # of electrons  =     42.992108846
     EX              =    -30.569957207
     EC              =     -0.018012352
     EX+EC           =    -30.587969559
Transforming the Hamiltonian                       ... done (   0.3 sec)
Diagonalizing the Hamiltonian                      ... done (   0.7 sec)
Back transforming the eigenvectors                 ... done (   0.2 sec)
Now organizing SCF variables                       ... done
                      ------------------
                      INITIAL GUESS DONE (   4.1 sec)
                      ------------------
             **** ENERGY FILE WAS UPDATED (k2_frag.en.tmp) ****
Finished Guess after   5.6 sec
Maximum memory used throughout the entire GUESS-calculation: 287.3 MB


           ************************************************************
           *        Program running with 10 parallel MPI-processes    *
           *              working on a common directory               *
           ************************************************************

-------------------------------------------------------------------------------------------
                                      ORCA LEAN-SCF
                              memory conserving SCF solver
-------------------------------------------------------------------------------------------

--------------------
CPCM SOLVATION MODEL
--------------------
CPCM parameters:
  Epsilon                                         ...       3.0000
  Refrac                                          ...       1.3300
  Rsolv                                           ...       1.3000
  Surface type                                    ... GAUSSIAN VDW
  Discretization scheme                           ... Constant charge density
    Threshold for H atoms                         ...       5.0000 (charges/Ang^2)
    Threshold for non-H atoms                     ...       5.0000 (charges/Ang^2)
  Epsilon function type                           ...         CPCM
Solvent:                                          ... CUSTOM
Radii:
  Scheme                                          ... Element-dependent radii
  Radius for C  used is    3.8550 Bohr (=   2.0400 Ang.)
  Radius for O  used is    3.4469 Bohr (=   1.8240 Ang.)
  Radius for P  used is    4.0818 Bohr (=   2.1600 Ang.)
  Radius for H  used is    2.4944 Bohr (=   1.3200 Ang.)
  Radius for N  used is    3.5149 Bohr (=   1.8600 Ang.)
Calculating surface                               ...        done! (  0.0s)
Cavity surface points                             ...         3636
Cavity Volume                                     ...    2358.4192
Cavity Surface-area                               ...    1313.0057
Calculating surface distance matrix               ...        done! (  0.1s)
Performing Cholesky decomposition & store         ...        done! (  0.2s)
Overall time for CPCM initialization              ...                 0.3s

----------------------------------------D-I-I-S--------------------------------------------
Iteration    Energy (Eh)           Delta-E    RMSDP     MaxDP     DIISErr   Damp  Time(sec)
-------------------------------------------------------------------------------------------
               ***  Starting incremental Fock matrix formation  ***
    1    -213.2462768434876068     0.00e+00  1.07e-03  5.52e-01  2.14e-01  0.700  49.1
    2    -213.3086409578781684    -6.24e-02  1.26e-03  8.25e-01  1.29e-01  0.700  28.9
                               ***Turning on AO-DIIS***
    3    -213.3429888938134980    -3.43e-02  1.75e-03  1.18e+00  6.91e-02  0.700  27.8
    4    -213.3639527080934783    -2.10e-02  4.89e-03  3.23e+00  4.52e-02  0.000  27.2
    5    -213.4095467005181206    -4.56e-02  1.70e-04  4.86e-02  3.69e-03  0.000  29.4
                              *** Initializing SOSCF ***
---------------------------------------S-O-S-C-F--------------------------------------
Iteration    Energy (Eh)           Delta-E    RMSDP     MaxDP     MaxGrad    Time(sec)
--------------------------------------------------------------------------------------
    6    -213.4096363567639685    -8.97e-05  1.36e-04  7.72e-02  1.25e-03    26.5
               *** Restarting incremental Fock matrix formation ***
    7    -213.4096780399822535    -4.17e-05  5.66e-03  3.46e+00  1.04e-04    48.7
    8    -213.4096835314136626    -5.49e-06  4.40e-04  2.69e-01  4.14e-05    45.8
    9    -213.4096838625672206    -3.31e-07  2.98e-04  1.86e-01  2.39e-05    39.5
   10    -213.4096839068190832    -4.43e-08  4.30e-05  2.64e-02  1.35e-06    35.2
                  *** Gradient check signals convergence ***

               *****************************************************
               *                     SUCCESS                       *
               *           SCF CONVERGED AFTER  10 CYCLES          *
               *****************************************************

Recomputing exchange energy using gridx3       ... done (   79.408 sec)
Old exchange energy                            :    -21.666089830 Eh
New exchange energy                            :    -21.666150529 Eh
Exchange energy change after final integration :     -0.000060700 Eh
Total energy after final integration           :   -213.409744607 Eh
             **** ENERGY FILE WAS UPDATED (k2_frag.en.tmp) ****

----------------
TOTAL SCF ENERGY
----------------

Total Energy       :       -213.40974460666183 Eh           -5807.17438 eV

Components:
Nuclear Repulsion  :        202.28208567004239 Eh            5504.37539 eV
Electronic Energy  :       -415.62092214150880 Eh          -11309.62026 eV
One Electron Energy:       -678.72340474813780 Eh          -18469.00279 eV
Two Electron Energy:        263.10248260662900 Eh            7159.38253 eV
CPCM Dielectric    :         -0.07084743535267 Eh              -1.92786 eV

Virial components:
Potential Energy   :       -425.97847088203048 Eh          -11591.46349 eV
Kinetic Energy     :        212.56872627536865 Eh            5784.28911 eV
Virial Ratio       :          2.00395645373630

DFT components:
N(Alpha)           :       21.000014926548 electrons
N(Beta)            :       21.000014926548 electrons
N(Total)           :       42.000029853096 electrons
E(X)               :       -9.670058066054 Eh       
E(C)               :       -0.629663881779 Eh       
E(XC)              :      -10.299721947832 Eh       

CPCM Solvation Model Properties:
Surface-charge          :         -1.00893221642300
Corrected charge        :         -1.00000000000000
Outlying charge corr.   :          0.00000288155261 Eh               0.00008 eV
Free-energy (cav+disp)  :  This term is not implemented in the current solvation scheme

---------------
SCF CONVERGENCE
---------------

  Last Energy change         ...    4.4252e-08  Tolerance :   1.0000e-08
  Last MAX-Density change    ...    2.6385e-02  Tolerance :   1.0000e-07
  Last RMS-Density change    ...    4.2959e-05  Tolerance :   5.0000e-09
  Last DIIS Error            ...    1.2510e-03  Tolerance :   5.0000e-07
  Last Orbital Gradient      ...    1.3547e-06  Tolerance :   1.0000e-05
  Last Orbital Rotation      ...    1.7000e-06  Tolerance :   1.0000e-05


----------------
ORBITAL ENERGIES
----------------

  NO   OCC          E(Eh)            E(eV) 
   0   2.0000     -15.273421      -415.6109 
   1   2.0000     -10.937053      -297.6123 
   2   2.0000     -10.876278      -295.9586 
   3   2.0000     -10.863669      -295.6155 
   4   2.0000     -10.845702      -295.1265 
   5   2.0000      -1.258020       -34.2325 
   6   2.0000      -1.031754       -28.0754 
   7   2.0000      -0.950522       -25.8650 
   8   2.0000      -0.861270       -23.4364 
   9   2.0000      -0.769073       -20.9275 
  10   2.0000      -0.764560       -20.8047 
  11   2.0000      -0.750636       -20.4258 
  12   2.0000      -0.657015       -17.8783 
  13   2.0000      -0.621630       -16.9154 
  14   2.0000      -0.608833       -16.5672 
  15   2.0000      -0.550749       -14.9866 
  16   2.0000      -0.549214       -14.9449 
  17   2.0000      -0.534663       -14.5489 
  18   2.0000      -0.476154       -12.9568 
  19   2.0000      -0.473303       -12.8792 
  20   2.0000      -0.470520       -12.8035 
  21   0.0000      -0.029722        -0.8088 
  22   0.0000      -0.002686        -0.0731 
  23   0.0000      -0.001049        -0.0286 
  24   0.0000       0.005362         0.1459 
  25   0.0000       0.020841         0.5671 
  26   0.0000       0.024333         0.6621 
  27   0.0000       0.024782         0.6743 
  28   0.0000       0.031227         0.8497 
  29   0.0000       0.033471         0.9108 
  30   0.0000       0.039316         1.0699 
  31   0.0000       0.048291         1.3141 
*Only the first 10 virtual orbitals were printed.

                    ********************************
                    * MULLIKEN POPULATION ANALYSIS *
                    ********************************

-----------------------
MULLIKEN ATOMIC CHARGES
-----------------------
   0 C :    0.000329
   1 C :    0.029826
   2 O :   -0.000735
   3 O :    0.000402
   4 O :   -0.002656
   5 O :    0.000571
   6 P :   -0.004425
   7 H :    0.000112
   8 H :    0.000294
   9 H :   -0.000795
  10 H :    0.008857
  11 H :   -0.016990
  12 H :   -0.022347
  13 C :   -0.744532
  14 C :    0.152791
  15 H :    0.034877
  16 H :   -0.109121
  17 C :    0.040181
  18 H :   -0.004607
  19 H :    0.058013
  20 C :    0.080085
  21 H :    0.128061
  22 H :    0.107884
  23 N :   -0.113157
  24 H :    0.322002
  25 H :    0.163553
  26 H :    0.286542
  27 H :    0.129954
  28 H :    0.285805
  29 H :    0.143846
  30 C :   -0.001400
  31 N :   -0.003732
  32 N :   -0.003388
  33 H :    0.001157
  34 C :    0.000514
  35 C :    0.047298
  36 H :   -0.000167
  37 C :    0.003091
  38 H :    0.000896
  39 H :   -0.000142
  40 H :    0.000162
  41 H :    0.001092
Sum of atomic charges:    1.0000000

--------------------------------
MULLIKEN REDUCED ORBITAL CHARGES
--------------------------------
  0 C s       :    -0.000005  s :    -0.000005
      pz      :     0.000063  p :    -0.000446
      px      :     0.000201
      py      :    -0.000710
      dz2     :     0.000033  d :     0.000122
      dxz     :     0.000088
      dyz     :    -0.000040
      dx2y2   :    -0.000083
      dxy     :     0.000124
      f0      :    -0.000000  f :    -0.000000
      f+1     :     0.000000
      f-1     :    -0.000000
      f+2     :    -0.000000
      f-2     :    -0.000000
      f+3     :    -0.000000
      f-3     :    -0.000000
      g0      :     0.000000  g :     0.000000
      g+1     :    -0.000000
      g-1     :    -0.000000
      g+2     :    -0.000000
      g-2     :    -0.000000
      g+3     :     0.000000
      g-3     :    -0.000000
      g+4     :     0.000000
      g-4     :    -0.000000

  1 C s       :    -0.000865  s :    -0.000865
      pz      :    -0.031134  p :    -0.030337
      px      :     0.001008
      py      :    -0.000210
      dz2     :     0.004841  d :     0.001376
      dxz     :    -0.002114
      dyz     :    -0.001729
      dx2y2   :    -0.000100
      dxy     :     0.000478
      f0      :    -0.000000  f :    -0.000001
      f+1     :    -0.000001
      f-1     :     0.000000
      f+2     :    -0.000000
      f-2     :     0.000000
      f+3     :    -0.000000
      f-3     :    -0.000000
      g0      :     0.000000  g :     0.000000
      g+1     :     0.000000
      g-1     :     0.000000
      g+2     :    -0.000000
      g-2     :     0.000000
      g+3     :    -0.000000
      g-3     :    -0.000000
      g+4     :    -0.000000
      g-4     :    -0.000000

  2 O s       :     0.000726  s :     0.000726
      pz      :     0.000141  p :     0.000024
      px      :    -0.000061
      py      :    -0.000056
      dz2     :    -0.000011  d :    -0.000015
      dxz     :    -0.000006
      dyz     :    -0.000007
      dx2y2   :    -0.000012
      dxy     :     0.000022
      f0      :    -0.000000  f :    -0.000000
      f+1     :     0.000000
      f-1     :     0.000000
      f+2     :     0.000000
      f-2     :    -0.000000
      f+3     :    -0.000000
      f-3     :    -0.000000
      g0      :    -0.000000  g :    -0.000000
      g+1     :    -0.000000
      g-1     :    -0.000000
      g+2     :    -0.000000
      g-2     :    -0.000000
      g+3     :    -0.000000
      g-3     :    -0.000000
      g+4     :    -0.000000
      g-4     :    -0.000000

  3 O s       :    -0.000841  s :    -0.000841
      pz      :     0.000702  p :     0.000567
      px      :     0.000016
      py      :    -0.000151
      dz2     :    -0.000137  d :    -0.000129
      dxz     :    -0.000102
      dyz     :     0.000041
      dx2y2   :     0.000056
      dxy     :     0.000014
      f0      :    -0.000000  f :    -0.000000
      f+1     :     0.000000
      f-1     :    -0.000000
      f+2     :     0.000000
      f-2     :    -0.000000
      f+3     :    -0.000000
      f-3     :    -0.000000
      g0      :    -0.000000  g :    -0.000000
      g+1     :    -0.000000
      g-1     :    -0.000000
      g+2     :    -0.000000
      g-2     :    -0.000000
      g+3     :     0.000000
      g-3     :    -0.000000
      g+4     :    -0.000000
      g-4     :    -0.000000

  4 O s       :    -0.000913  s :    -0.000913
      pz      :    -0.000242  p :     0.001961
      px      :    -0.000154
      py      :     0.002357
      dz2     :     0.000206  d :     0.001653
      dxz     :     0.000539
      dyz     :     0.000930
      dx2y2   :    -0.000474
      dxy     :     0.000453
      f0      :     0.000001  f :    -0.000044
      f+1     :    -0.000007
      f-1     :    -0.000021
      f+2     :    -0.000005
      f-2     :    -0.000011
      f+3     :    -0.000001
      f-3     :     0.000000
      g0      :    -0.000000  g :    -0.000001
      g+1     :    -0.000000
      g-1     :    -0.000000
      g+2     :    -0.000000
      g-2     :    -0.000000
      g+3     :    -0.000000
      g-3     :     0.000000
      g+4     :     0.000000
      g-4     :    -0.000000

  5 O s       :    -0.000868  s :    -0.000868
      pz      :    -0.000369  p :     0.000401
      px      :     0.000533
      py      :     0.000237
      dz2     :    -0.000026  d :    -0.000104
      dxz     :    -0.000104
      dyz     :     0.000011
      dx2y2   :    -0.000009
      dxy     :     0.000026
      f0      :    -0.000000  f :    -0.000000
      f+1     :    -0.000000
      f-1     :    -0.000000
      f+2     :    -0.000000
      f-2     :    -0.000000
      f+3     :    -0.000000
      f-3     :     0.000000
      g0      :    -0.000000  g :    -0.000000
      g+1     :    -0.000000
      g-1     :    -0.000000
      g+2     :     0.000000
      g-2     :    -0.000000
      g+3     :    -0.000000
      g-3     :    -0.000000
      g+4     :    -0.000000
      g-4     :    -0.000000

  6 P s       :    -0.001379  s :    -0.001379
      pz      :     0.003554  p :     0.007609
      px      :     0.003137
      py      :     0.000919
      dz2     :     0.001610  d :    -0.001730
      dxz     :    -0.002013
      dyz     :    -0.001341
      dx2y2   :    -0.000433
      dxy     :     0.000446
      f0      :    -0.000004  f :    -0.000075
      f+1     :    -0.000001
      f-1     :    -0.000005
      f+2     :    -0.000049
      f-2     :     0.000003
      f+3     :    -0.000001
      f-3     :    -0.000017
      g0      :    -0.000000  g :    -0.000000
      g+1     :    -0.000000
      g-1     :    -0.000000
      g+2     :    -0.000000
      g-2     :     0.000000
      g+3     :     0.000000
      g-3     :    -0.000000
      g+4     :     0.000000
      g-4     :     0.000000

  7 H s       :    -0.000081  s :    -0.000081
      pz      :    -0.000007  p :    -0.000031
      px      :    -0.000012
      py      :    -0.000012
      dz2     :    -0.000000  d :    -0.000000
      dxz     :     0.000000
      dyz     :    -0.000000
      dx2y2   :    -0.000000
      dxy     :    -0.000000
      f0      :    -0.000000  f :    -0.000000
      f+1     :    -0.000000
      f-1     :    -0.000000
      f+2     :    -0.000000
      f-2     :     0.000000
      f+3     :    -0.000000
      f-3     :    -0.000000

  8 H s       :    -0.000414  s :    -0.000414
      pz      :     0.000082  p :     0.000120
      px      :     0.000055
      py      :    -0.000017
      dz2     :     0.000000  d :     0.000000
      dxz     :    -0.000000
      dyz     :     0.000000
      dx2y2   :    -0.000000
      dxy     :     0.000000
      f0      :    -0.000000  f :     0.000000
      f+1     :     0.000000
      f-1     :     0.000000
      f+2     :     0.000000
      f-2     :     0.000000
      f+3     :     0.000000
      f-3     :    -0.000000

  9 H s       :     0.001058  s :     0.001058
      pz      :    -0.000077  p :    -0.000262
      px      :     0.000073
      py      :    -0.000259
      dz2     :     0.000000  d :    -0.000000
      dxz     :    -0.000000
      dyz     :     0.000000
      dx2y2   :     0.000000
      dxy     :    -0.000000
      f0      :    -0.000000  f :     0.000000
      f+1     :    -0.000000
      f-1     :     0.000000
      f+2     :    -0.000000
      f-2     :     0.000000
      f+3     :     0.000000
      f-3     :    -0.000000

 10 H s       :    -0.006557  s :    -0.006557
      pz      :    -0.002534  p :    -0.002300
      px      :     0.000171
      py      :     0.000062
      dz2     :     0.000000  d :     0.000000
      dxz     :    -0.000000
      dyz     :    -0.000000
      dx2y2   :    -0.000000
      dxy     :     0.000000
      f0      :     0.000000  f :     0.000000
      f+1     :     0.000000
      f-1     :    -0.000000
      f+2     :    -0.000000
      f-2     :    -0.000000
      f+3     :    -0.000000
      f-3     :    -0.000000

 11 H s       :     0.017250  s :     0.017250
      pz      :    -0.001211  p :    -0.000258
      px      :    -0.000614
      py      :     0.001567
      dz2     :    -0.000002  d :    -0.000002
      dxz     :    -0.000000
      dyz     :     0.000000
      dx2y2   :     0.000000
      dxy     :    -0.000000
      f0      :    -0.000000  f :    -0.000000
      f+1     :     0.000000
      f-1     :    -0.000000
      f+2     :    -0.000000
      f-2     :     0.000000
      f+3     :    -0.000000
      f-3     :     0.000000

 12 H s       :     0.022732  s :     0.022732
      pz      :    -0.000443  p :    -0.000388
      px      :     0.000358
      py      :    -0.000304
      dz2     :     0.000001  d :     0.000002
      dxz     :     0.000001
      dyz     :     0.000001
      dx2y2   :     0.000000
      dxy     :    -0.000000
      f0      :    -0.000000  f :     0.000000
      f+1     :    -0.000000
      f-1     :     0.000000
      f+2     :    -0.000000
      f-2     :     0.000000
      f+3     :     0.000000
      f-3     :     0.000000

 13 C s       :     3.392199  s :     3.392199
      pz      :     1.004233  p :     3.272215
      px      :     1.173431
      py      :     1.094551
      dz2     :     0.013858  d :     0.072010
      dxz     :     0.003447
      dyz     :     0.015139
      dx2y2   :     0.006892
      dxy     :     0.032674
      f0      :     0.001898  f :     0.007501
      f+1     :     0.000728
      f-1     :     0.002125
      f+2     :     0.000471
      f-2     :     0.000923
      f+3     :     0.000233
      f-3     :     0.001122
      g0      :     0.000109  g :     0.000607
      g+1     :     0.000046
      g-1     :     0.000135
      g+2     :     0.000111
      g-2     :     0.000083
      g+3     :     0.000018
      g-3     :     0.000037
      g+4     :     0.000039
      g-4     :     0.000029

 14 C s       :     3.369169  s :     3.369169
      pz      :     0.623604  p :     2.381829
      px      :     0.943016
      py      :     0.815209
      dz2     :    -0.015228  d :     0.082851
      dxz     :     0.029737
      dyz     :     0.021175
      dx2y2   :    -0.000485
      dxy     :     0.047653
      f0      :     0.003412  f :     0.012446
      f+1     :     0.000786
      f-1     :     0.002992
      f+2     :     0.001161
      f-2     :     0.002227
      f+3     :     0.000616
      f-3     :     0.001251
      g0      :     0.000143  g :     0.000914
      g+1     :     0.000042
      g-1     :     0.000211
      g+2     :     0.000163
      g-2     :     0.000143
      g+3     :     0.000059
      g-3     :     0.000058
      g+4     :     0.000069
      g-4     :     0.000025

 15 H s       :     0.966308  s :     0.966308
      pz      :    -0.009971  p :    -0.005824
      px      :     0.003525
      py      :     0.000622
      dz2     :     0.000322  d :     0.004391
      dxz     :     0.000823
      dyz     :     0.001048
      dx2y2   :     0.001697
      dxy     :     0.000501
      f0      :     0.000032  f :     0.000248
      f+1     :     0.000018
      f-1     :     0.000018
      f+2     :     0.000007
      f-2     :     0.000056
      f+3     :     0.000089
      f-3     :     0.000028

 16 H s       :     0.970756  s :     0.970756
      pz      :     0.051048  p :     0.133981
      px      :     0.060186
      py      :     0.022747
      dz2     :     0.000242  d :     0.004138
      dxz     :     0.001082
      dyz     :     0.000830
      dx2y2   :     0.001322
      dxy     :     0.000662
      f0      :     0.000040  f :     0.000246
      f+1     :     0.000012
      f-1     :     0.000015
      f+2     :     0.000002
      f-2     :     0.000058
      f+3     :     0.000104
      f-3     :     0.000015

 17 C s       :     3.326637  s :     3.326637
      pz      :     0.770456  p :     2.439436
      px      :     0.860943
      py      :     0.808037
      dz2     :     0.027909  d :     0.180630
      dxz     :     0.006566
      dyz     :     0.041607
      dx2y2   :     0.047572
      dxy     :     0.056976
      f0      :     0.002145  f :     0.012208
      f+1     :     0.000676
      f-1     :     0.002584
      f+2     :     0.000737
      f-2     :     0.002417
      f+3     :     0.001949
      f-3     :     0.001700
      g0      :     0.000078  g :     0.000909
      g+1     :     0.000037
      g-1     :     0.000169
      g+2     :     0.000148
      g-2     :     0.000120
      g+3     :     0.000063
      g-3     :     0.000072
      g+4     :     0.000115
      g-4     :     0.000108

 18 H s       :     0.951263  s :     0.951263
      pz      :     0.015809  p :     0.048928
      px      :     0.014176
      py      :     0.018943
      dz2     :     0.001436  d :     0.004172
      dxz     :     0.000982
      dyz     :     0.000791
      dx2y2   :     0.000289
      dxy     :     0.000674
      f0      :     0.000091  f :     0.000244
      f+1     :     0.000029
      f-1     :     0.000024
      f+2     :     0.000021
      f-2     :     0.000064
      f+3     :     0.000013
      f-3     :     0.000002

 19 H s       :     0.935819  s :     0.935819
      pz      :    -0.008910  p :     0.001634
      px      :     0.005228
      py      :     0.005316
      dz2     :     0.000201  d :     0.004286
      dxz     :     0.001154
      dyz     :     0.000651
      dx2y2   :     0.001425
      dxy     :     0.000856
      f0      :     0.000040  f :     0.000247
      f+1     :     0.000013
      f-1     :     0.000005
      f+2     :     0.000010
      f-2     :     0.000066
      f+3     :     0.000096
      f-3     :     0.000018

 20 C s       :     3.380898  s :     3.380898
      pz      :     1.034035  p :     2.415767
      px      :     0.659430
      py      :     0.722302
      dz2     :     0.018665  d :     0.106795
      dxz     :     0.030267
      dyz     :     0.027302
      dx2y2   :     0.029258
      dxy     :     0.001302
      f0      :     0.001805  f :     0.015218
      f+1     :     0.001352
      f-1     :     0.002220
      f+2     :     0.000330
      f-2     :     0.002465
      f+3     :     0.004141
      f-3     :     0.002905
      g0      :     0.000093  g :     0.001237
      g+1     :     0.000114
      g-1     :     0.000087
      g+2     :     0.000126
      g-2     :     0.000137
      g+3     :     0.000043
      g-3     :     0.000132
      g+4     :     0.000239
      g-4     :     0.000265

 21 H s       :     0.862509  s :     0.862509
      pz      :     0.015204  p :     0.005156
      px      :     0.001708
      py      :    -0.011757
      dz2     :     0.001268  d :     0.004051
      dxz     :     0.000640
      dyz     :     0.000549
      dx2y2   :     0.000559
      dxy     :     0.001035
      f0      :     0.000076  f :     0.000224
      f+1     :     0.000008
      f-1     :     0.000023
      f+2     :     0.000028
      f-2     :     0.000044
      f+3     :     0.000024
      f-3     :     0.000022

 22 H s       :     0.878759  s :     0.878759
      pz      :     0.009826  p :     0.009067
      px      :     0.002918
      py      :    -0.003676
      dz2     :     0.001150  d :     0.004065
      dxz     :     0.000948
      dyz     :     0.000866
      dx2y2   :     0.000338
      dxy     :     0.000763
      f0      :     0.000087  f :     0.000225
      f+1     :     0.000019
      f-1     :     0.000020
      f+2     :     0.000027
      f-2     :     0.000050
      f+3     :     0.000014
      f-3     :     0.000008

 23 N s       :     3.550565  s :     3.550565
      pz      :     1.124863  p :     3.486824
      px      :     1.193935
      py      :     1.168027
      dz2     :     0.006206  d :     0.070651
      dxz     :     0.006192
      dyz     :     0.021685
      dx2y2   :     0.007457
      dxy     :     0.029111
      f0      :     0.000393  f :     0.004821
      f+1     :     0.000379
      f-1     :     0.000911
      f+2     :     0.000160
      f-2     :     0.000710
      f+3     :     0.001180
      f-3     :     0.001088
      g0      :     0.000026  g :     0.000296
      g+1     :     0.000021
      g-1     :     0.000029
      g+2     :     0.000037
      g-2     :     0.000035
      g+3     :     0.000012
      g-3     :     0.000028
      g+4     :     0.000055
      g-4     :     0.000052

 24 H s       :     0.669593  s :     0.669593
      pz      :    -0.018203  p :     0.000309
      px      :     0.010246
      py      :     0.008266
      dz2     :     0.002268  d :     0.007466
      dxz     :     0.002189
      dyz     :     0.001326
      dx2y2   :     0.000558
      dxy     :     0.001125
      f0      :     0.000191  f :     0.000630
      f+1     :     0.000101
      f-1     :     0.000094
      f+2     :     0.000075
      f-2     :     0.000130
      f+3     :     0.000027
      f-3     :     0.000013

 25 H s       :     0.765570  s :     0.765570
      pz      :     0.011926  p :     0.063085
      px      :     0.025376
      py      :     0.025783
      dz2     :     0.002405  d :     0.007225
      dxz     :     0.001260
      dyz     :     0.001507
      dx2y2   :     0.000914
      dxy     :     0.001139
      f0      :     0.000117  f :     0.000567
      f+1     :     0.000043
      f-1     :     0.000109
      f+2     :     0.000103
      f-2     :     0.000116
      f+3     :     0.000042
      f-3     :     0.000038

 26 H s       :     0.655456  s :     0.655456
      pz      :     0.007610  p :     0.049929
      px      :     0.018253
      py      :     0.024066
      dz2     :     0.000312  d :     0.007448
      dxz     :     0.001357
      dyz     :     0.001536
      dx2y2   :     0.003085
      dxy     :     0.001158
      f0      :     0.000084  f :     0.000626
      f+1     :     0.000036
      f-1     :     0.000021
      f+2     :     0.000005
      f-2     :     0.000156
      f+3     :     0.000187
      f-3     :     0.000137

 27 H s       :     0.820500  s :     0.820500
      pz      :     0.012314  p :     0.045392
      px      :     0.020859
      py      :     0.012218
      dz2     :     0.000269  d :     0.003901
      dxz     :     0.000741
      dyz     :     0.000929
      dx2y2   :     0.001548
      dxy     :     0.000415
      f0      :     0.000036  f :     0.000252
      f+1     :     0.000015
      f-1     :     0.000014
      f+2     :     0.000006
      f-2     :     0.000063
      f+3     :     0.000085
      f-3     :     0.000034

 28 H s       :     0.671669  s :     0.671669
      pz      :     0.000114  p :     0.038397
      px      :     0.025826
      py      :     0.012457
      dz2     :     0.000180  d :     0.003883
      dxz     :     0.001173
      dyz     :     0.000495
      dx2y2   :     0.001185
      dxy     :     0.000849
      f0      :     0.000041  f :     0.000246
      f+1     :     0.000011
      f-1     :     0.000009
      f+2     :     0.000013
      f-2     :     0.000050
      f+3     :     0.000106
      f-3     :     0.000017

 29 H s       :     0.813335  s :     0.813335
      pz      :     0.027144  p :     0.038518
      px      :     0.003721
      py      :     0.007653
      dz2     :     0.001552  d :     0.004048
      dxz     :     0.000737
      dyz     :     0.000416
      dx2y2   :     0.000365
      dxy     :     0.000978
      f0      :     0.000056  f :     0.000253
      f+1     :     0.000012
      f-1     :     0.000057
      f+2     :     0.000013
      f-2     :     0.000076
      f+3     :     0.000032
      f-3     :     0.000007

 30 C s       :     0.000072  s :     0.000072
      pz      :    -0.000257  p :     0.001247
      px      :     0.000136
      py      :     0.001368
      dz2     :     0.000027  d :     0.000081
      dxz     :    -0.000010
      dyz     :    -0.000028
      dx2y2   :    -0.000056
      dxy     :     0.000148
      f0      :    -0.000000  f :    -0.000000
      f+1     :    -0.000000
      f-1     :    -0.000000
      f+2     :     0.000000
      f-2     :    -0.000000
      f+3     :     0.000000
      f-3     :    -0.000000
      g0      :    -0.000000  g :    -0.000000
      g+1     :     0.000000
      g-1     :    -0.000000
      g+2     :    -0.000000
      g-2     :    -0.000000
      g+3     :    -0.000000
      g-3     :     0.000000
      g+4     :    -0.000000
      g-4     :    -0.000000

 31 N s       :     0.002539  s :     0.002539
      pz      :    -0.001179  p :     0.000518
      px      :     0.000890
      py      :     0.000807
      dz2     :     0.000102  d :     0.000674
      dxz     :    -0.000022
      dyz     :     0.000479
      dx2y2   :     0.000197
      dxy     :    -0.000082
      f0      :    -0.000000  f :     0.000000
      f+1     :    -0.000000
      f-1     :     0.000000
      f+2     :     0.000000
      f-2     :     0.000000
      f+3     :     0.000000
      f-3     :     0.000000
      g0      :     0.000000  g :     0.000000
      g+1     :     0.000000
      g-1     :     0.000000
[...]
      f+1     :     0.000000
      f-1     :     0.000000
      f+2     :     0.000000
      f-2     :     0.000000
      f+3     :     0.000000
      f-3     :     0.000000



                      *****************************
                      * MAYER POPULATION ANALYSIS *
                      *****************************

  NA   - Mulliken gross atomic population
  ZA   - Total nuclear charge
  QA   - Mulliken gross atomic charge
  VA   - Mayer's total valence
  BVA  - Mayer's bonded valence
  FA   - Mayer's free valence

  ATOM       NA         ZA         QA         VA         BVA        FA
  0 C     -0.0003     0.0000     0.0003    -0.0007    -0.0007    -0.0000
  1 C     -0.0298     0.0000     0.0298    -0.0606    -0.0606    -0.0000
  2 O      0.0007     0.0000    -0.0007     0.0015     0.0015    -0.0000
  3 O     -0.0004     0.0000     0.0004    -0.0008    -0.0008    -0.0000
  4 O      0.0027     0.0000    -0.0027     0.0053     0.0053     0.0000
  5 O     -0.0006     0.0000     0.0006    -0.0011    -0.0011    -0.0000
  6 P      0.0044     0.0000    -0.0044     0.0088     0.0088     0.0000
  7 H     -0.0001     0.0000     0.0001    -0.0002    -0.0002     0.0000
  8 H     -0.0003     0.0000     0.0003    -0.0006    -0.0006     0.0000
  9 H      0.0008     0.0000    -0.0008     0.0016     0.0016     0.0000
 10 H     -0.0089     0.0000     0.0089    -0.0178    -0.0178    -0.0000
 11 H      0.0170     0.0000    -0.0170     0.0337     0.0337     0.0000
 12 H      0.0223     0.0000    -0.0223     0.0442     0.0442    -0.0000
 13 C      6.7445     6.0000    -0.7445     3.7600     3.7600     0.0000
 14 C      5.8472     6.0000     0.1528     3.5715     3.5715     0.0000
 15 H      0.9651     1.0000     0.0349     0.9298     0.9298     0.0000
 16 H      1.1091     1.0000    -0.1091     1.1914     1.1914    -0.0000
 17 C      5.9598     6.0000     0.0402     3.6954     3.6954     0.0000
 18 H      1.0046     1.0000    -0.0046     1.0947     1.0947     0.0000
 19 H      0.9420     1.0000     0.0580     0.9769     0.9769    -0.0000
 20 C      5.9199     6.0000     0.0801     3.5330     3.5330    -0.0000
 21 H      0.8719     1.0000     0.1281     0.9317     0.9317     0.0000
 22 H      0.8921     1.0000     0.1079     0.8976     0.8976     0.0000
 23 N      7.1132     7.0000    -0.1132     3.5271     3.5271    -0.0000
 24 H      0.6780     1.0000     0.3220     0.7462     0.7462     0.0000
 25 H      0.8364     1.0000     0.1636     1.0521     1.0521    -0.0000
 26 H      0.7135     1.0000     0.2865     0.9414     0.9414     0.0000
 27 H      0.8700     1.0000     0.1300     1.1414     1.1414     0.0000
 28 H      0.7142     1.0000     0.2858     0.9333     0.9333    -0.0000
 29 H      0.8562     1.0000     0.1438     1.0310     1.0310    -0.0000
 30 C      0.0014     0.0000    -0.0014     0.0028     0.0028    -0.0000
 31 N      0.0037     0.0000    -0.0037     0.0074     0.0074    -0.0000
 32 N      0.0034     0.0000    -0.0034     0.0068     0.0068     0.0000
 33 H     -0.0012     0.0000     0.0012    -0.0023    -0.0023    -0.0000
 34 C     -0.0005     0.0000     0.0005    -0.0010    -0.0010    -0.0000
 35 C     -0.0473     0.0000     0.0473    -0.0959    -0.0959     0.0000
 36 H      0.0002     0.0000    -0.0002     0.0004     0.0004     0.0000
 37 C     -0.0031     0.0000     0.0031    -0.0062    -0.0062    -0.0000
 38 H     -0.0009     0.0000     0.0009    -0.0018    -0.0018    -0.0000
 39 H      0.0001     0.0000    -0.0001     0.0003     0.0003    -0.0000
 40 H     -0.0002     0.0000     0.0002    -0.0003    -0.0003    -0.0000
 41 H     -0.0011     0.0000     0.0011    -0.0022    -0.0022     0.0000

  Mayer bond orders larger than 0.100000
B( 13-C , 14-C ) :   0.8398 B( 13-C , 27-H ) :   1.0197 B( 13-C , 28-H ) :   0.9819 
B( 13-C , 29-H ) :   1.0143 B( 14-C , 15-H ) :   0.9721 B( 14-C , 16-H ) :   1.0918 
B( 14-C , 17-C ) :   0.8618 B( 17-C , 18-H ) :   1.0364 B( 17-C , 19-H ) :   0.9028 
B( 17-C , 20-C ) :   0.9234 B( 20-C , 21-H ) :   0.9385 B( 20-C , 22-H ) :   0.9237 
B( 20-C , 23-N ) :   0.7740 B( 23-N , 24-H ) :   0.8252 B( 23-N , 25-H ) :   0.9724 
B( 23-N , 26-H ) :   0.9000 

-------
TIMINGS
-------

Total SCF time: 0 days 0 hours 7 min 21 sec 

Total time                  ....     441.952 sec
Sum of individual times     ....     442.826 sec  (100.2%)

SCF preparation             ....       1.507 sec  (  0.3%)
Fock matrix formation       ....     417.319 sec  ( 94.4%)
  Startup                   ....       0.673 sec  (  0.2% of F)
  Split-RI-J                ....      19.802 sec  (  4.7% of F)
  Chain of spheres X        ....     321.337 sec  ( 77.0% of F)
  XC integration            ....      45.935 sec  ( 11.0% of F)
    XC Preparation          ....       0.000 sec  (  0.0% of XC)
    Basis function eval.    ....       4.226 sec  (  9.2% of XC)
    Density eval.           ....      15.191 sec  ( 33.1% of XC)
    XC-Functional eval.     ....       0.082 sec  (  0.2% of XC)
    XC-Potential eval.      ....      18.326 sec  ( 39.9% of XC)
  CPCM terms                ....      27.985 sec  (  6.7% of F)
Diagonalization             ....       0.000 sec  (  0.0%)
Density matrix formation    ....       1.705 sec  (  0.4%)
Total Energy calculation    ....       0.958 sec  (  0.2%)
Population analysis         ....       0.974 sec  (  0.2%)
Orbital Transformation      ....       3.082 sec  (  0.7%)
Orbital Orthonormalization  ....       0.000 sec  (  0.0%)
DIIS solution               ....      12.149 sec  (  2.7%)
SOSCF solution              ....       4.961 sec  (  1.1%)
Finished LeanSCF after 442.5 sec

Maximum memory used throughout the entire LEANSCF-calculation: 467.8 MB


           ************************************************************
           *        Program running with 10 parallel MPI-processes    *
           *              working on a common directory               *
           ************************************************************

------------------------------------------------------------------------------
                                ORCA  MP2 
------------------------------------------------------------------------------

Freezing NCore=10 chemical core electrons

-------------
RI-MP2 ENERGY
-------------
Dimension of the orbital basis            ... 1951
Dimension of the AuxC basis               ... 4412
Memory devoted to MP2                     ... 2000 MB   
Data format for matrix containers         ... DOUBLE
Compression type for matrix containers    ... UNCOMPRESSED
Scaling for aa/bb pairs                   ...   5.660e-02
Scaling for ab pairs                      ...   5.935e-01
Overall scaling of the MP2 energy         ...   1.000e+00

-----------------------
SHARK RI TRANSFORMATION
-----------------------

Number of basis functions                ...   1951
Number of aux functions                  ...   4412
Number of operators                      ...      1
Generation of IJK                        ... NO
Generation of IAK                        ... YES
Generation of ABK                        ... NO
Orbital Range Operator  0:    5-  20 to   21-1950

Aux basis identifier                     ...   AUXC
Contraction scheme used                  ... SEGMENTED
Do orthogonalization                     ... YES
All operator combinations                ... NO
Transpose (ia|K)                         ... NO
Integral generator used                  ... LIBINT
Starting integral generation + trafo... 
Half trafo (segmented) done. Total time = 40.9 sec. integrals= 12.2 sec trafo= 16.8 sec
Integral generation and half transformation done ( 40.9 sec)

Reading or making V^(-1/2)          ... done (  0.2 sec)
Sorting IAK integrals               ... done (  7.2 sec)

SHARK RI integral transformation done. Total time = 48.3 sec.

Opening buffers                              ... done

Starting loop over batches of integrals:

Operator 0  - window                       ... (  5- 20)x( 21-1950)
Operator 0  - Memory available             ...  2000 MB
Operator 0  - Memory needed per MO         ...  65.0 MB
Operator 0  - Number of orbitals per batch ... 2
Operator 0  - Number of batches            ... 1

OPERATOR  0   PASS   0:  MOs     5 ...    6 +    7 ...    8 +    9 ...   10 +   11 ...   12
                            +   13 ...   14 +   15 ...   16 +   17 ...   18 +   19 ...   20
  Reading integrals       ... ok
Time spent in pair loops =    34.871 sec
Deleting buffers (Ka|jb) ...done

-----------------------------------------------
 RI-MP2 CORRELATION ENERGY:     -0.522690706 Eh
-----------------------------------------------


-------
TIMINGS
-------

Total time                :   92.716 sec
Integral trafo            :   48.388 sec ( 52.2%)
I/O of integrals          :    0.105 sec (  0.1%)
K(i,j) operators          :    1.533 sec (  1.7%)
T(i,j) pair energies      :    0.130 sec (  0.1%)
V**(-1/2)                 :    9.458 sec ( 10.2%)


---------------------------------------
MP2 TOTAL ENERGY:     -213.932435313 Eh
---------------------------------------

Maximum memory used throughout the entire MP2-calculation: 610.4 MB


-------------------------------------------------------------------------------
                          DFT DISPERSION CORRECTION                            
                                                                               
                                DFTD4 V3.4.0                                   
-------------------------------------------------------------------------------
The REV-DSD-PBEP86-2021 functional is recognized
A user input s6-coefficient scaling factor has been recognized
A user input a1-coefficient scaling factor has been recognized
A user input s8-coefficient scaling factor has been recognized
A user input a2-coefficient scaling factor has been recognized
A user input s9-coefficient scaling factor has been recognized
Active option DFTDOPT                   ...         5   

-------------------------   ----------------
Dispersion correction           -0.006838304
-------------------------   ----------------


-------------------------   --------------------
FINAL SINGLE POINT ENERGY      -213.939273616678
-------------------------   --------------------



           ************************************************************
           *        Program running with 10 parallel MPI-processes    *
           *              working on a common directory               *
           ************************************************************

------------------------------------------------------------------------------
                              ORCA PROPERTY CALCULATIONS
------------------------------------------------------------------------------

GBWName                                 ... k2_frag.gbw
Number of atoms                         ...     42
Number of basis functions               ...   1951
Max core memory                         ...   2000 MB

Electric properties:
Dipole moment                           ... YES
Quadrupole moment                       ...  NO
Static polarizability (Dipole/Dipole)   ...  NO
Static polarizability (Dipole/Quad.)    ...  NO
Static polarizability (Quad./Quad.)     ...  NO
Static polarizability (Velocity)        ...  NO

Atomic electric properties:
Dipole moment                           ...  NO
Quadrupole moment                       ...  NO
Static polarizability                   ...  NO

Choice of electric origin               ... Center of mass
Position of electric origin             ...     5.308044    -8.290699    -1.751659

General magnetic properties:
Magnetizability                         ...  NO

EPR properties:
g-Tensor (aka g-matrix)                 ...  NO
Zero-Field splitting spin-orbit         ...  NO
Zero-field splitting spin-spin          ...  NO
Hyperfine couplings                     ...  NO (   0 nuclei)
Quadrupole couplings                    ...  NO (   0 nuclei)
Contact density                         ...  NO (   0 nuclei)

NMR properties:
Chemical shifts                         ...  NO (   0 nuclei)
Spin-rotation constants                 ...  NO (   0 nuclei)
Spin-spin couplings                     ...  NO (   0 nuclei,    0 pairs)

Choice of magnetic origin               ... GIAO
Position of magnetic origin             ...     0.000000     0.000000     0.000000

Properties with geometric perturbations:
SCF Hessian                             ...  NO
IR spectrum                             ...  NO
VCD spectrum                            ...  NO
X-ray spectroscopy properties:
SCF XES/XAS/RIXS spectra                ...  NO


-------------
DIPOLE MOMENT
-------------

Method             : SCF
Type of density    : Electron Density
Multiplicity       :   1
Irrep              :   0
Energy             :  -213.4097446066618318 Eh
Relativity type    : 
Basis              : AO
                                X                 Y                 Z
Electronic contribution:     -2.345569173      -0.826281390      -1.964384121
Nuclear contribution   :     -0.227773994       0.195992510       0.954959430
                        -----------------------------------------
Total Dipole Moment    :     -2.573343168      -0.630288880      -1.009424691
                        -----------------------------------------
Magnitude (a.u.)       :      2.835189118
Magnitude (Debye)      :      7.206478031



--------------------
Rotational spectrum 
--------------------
 
Rotational constants in cm-1:             0.248045             0.100634             0.089703 
Rotational constants in MHz :          7436.190011          3016.921364          2689.225302 

Dipole components along the rotational axes: 
x,y,z [a.u.] :    -2.629202     0.976642     0.414445 
x,y,z [Debye]:    -6.682900     2.482426     1.053435 

 

Dipole moment calculation done in   0.2 sec 

Maximum memory used throughout the entire PROP-calculation: 308.5 MB

--------------------------------
SUGGESTED CITATIONS FOR THIS RUN
--------------------------------

Below you find a list of papers that are relevant to this ORCA run
We neither can nor want to force you to cite these papers, but we appreciate if you do
You receive ORCA, which is the product of decades of hard work by many enthusiastic individuals, for free
The only thing we kindly ask in return is that you cite our papers,
We deeply appreciate it, if you show your appreciation for ORCA by not just citing the generic ORCA reference.

Please note that relegating all ORCA citations to the supporting information does *not* help us.
SI sections are not indexed - citations you put there will not count into any citation statistics
But we need these citations in order to attract the funding resources that allow us to do what we are doing

Therefore, if you are a happy ORCA user, please consider citing a few of the papers listed below in the main body of your paper

In addition to the list printed below, the program has created the file k2_frag.bibtex that contains the list in bibtex format
You can import this file easily into all common literature databanks and citation aid programs


List of essential papers. We consider these as the minimum necessary citations

  1. Neese,F.
     Software update: the ORCA program system, version 5.0
     WIRES Comput. Molec. Sci., 2022 12(1)e1606
     doi.org/10.1002/wcms.1606

List of papers to cite with high priority. The work reported in these papers was absolutely
necessary for this run to complete.
Our perspective: the developers of density functionals and basis sets usually get cited in chemistry papers
Good! But without the algorithms to do something with them, the functionals or basis sets would not do anything.
Hence, in our opinion, the algorithm design and method developments papers are equally worthy of getting cited

  1. Neese,F.
     An improvement of the resolution of the identity approximation for the formation of the Coulomb matrix
     J. Comp. Chem., 2003 24(14)1740-1747
     doi.org/10.1002/jcc.10318
  2. Neese,F.; Wennmohs,F.; Hansen,A.; Becker,U.
     Efficient, approximate and parallel Hartree-Fock and hybrid DFT calculations. A 'chain-of-spheres' algorithm for the Hartree-Fock exchange
     Chem. Phys., 2009 356(1-3)98-109
     doi.org/10.1016/j.chemphys.2008.10.036
  3. Kossmann,S.; Neese,F.
     Efficient Structure Optimization with Second-Order Many-Body Perturbation Theory: The RIJCOSX-MP2 Method
     J. Theo. Comp. Chem., 2010 6 2325-2338
     doi.org/10.1021/ct100199k
  4. Garcia-Rates,M.; Neese,F.
     Effect of the Solute Cavity on the Solvation Energy and its Derivatives within the Framework of the Gaussian Charge Scheme
     J. Comput. Chem., 2020 41 922-939
     doi.org/10.1002/jcc.26139
  5. Helmich-Paris,B.; de Souza,B.; Neese,F.; Izsák,R.
     An improved chain of spheres for exchange algorithm
     J. Chem. Phys., 2021 155 104109
     doi.org/doi: 10.1063/5.0058766.
  6. Neese,F.
     The SHARK Integral Generation and Digestion System
     J. Comp. Chem., 2022  1-16
     doi.org/10.1002/jcc.26942
  7. Caldeweyher,E.; Bannwarth,C.; Grimme,S.
     Extension of the D3 dispersion coefficient model
     J. Chem. Phys., 2017 147 034112
     doi.org/10.1063/1.4993215
  8. Caldeweyher,E.; Ehlert,S.; Hansen,A.; Neugebauer,H.; Spicher,S.; Bannwarth,C.; Grimme,S.
     A generally applicable atomic-charge dependent London dispersion correction
     J. Chem. Phys., 2019 150 154122
     doi.org/10.1063/1.5090222
  9. Caldeweyher,E.; Mewes,J.; Ehlert,S.; Grimme,S.
     Extension and evaluation of the D4 London-dispersion model for periodic systems
     Phys. Chem. Chem. Phys., 2020 22(16)8499-8512
     doi.org/10.1039/D0CP00502A
 10. Wittmann,L.; Gordiy,I.; Friede,M.; Helmich-Paris,B.; Grimme,S.; Hansen,A.; Bursch,M.
     Extension of the D3 and D4 London Dispersion Corrections to the full Actinides Series
     Phys. Chem. Chem. Phys., 2024 26(32)21379-21394
     doi.org/https://doi.org/10.1039/D4CP01514B 

List of suggested additional citations. These are papers that are important in the 'surrounding' of 
of this run, or papers that preceded the highly important papers. If you like your results we are grateful for a citation.

  1. Izsak,R.; Neese,F.
     An overlap fitted chain of spheres exchange method
     J. Chem. Phys., 2011 135 144105
     doi.org/10.1063/1.3646921
  2. Izsak,R.; Hansen,A.; Neese,F.
     The resolution of identity and chain of spheres approximations for the LPNO-CCSD singles Fock term
     Molec. Phys., 2012 110 2413-2417
     doi.org/10.1080/00268976.2012.687466
  3. Neese,F.
     The ORCA program system
     WIRES Comput. Molec. Sci., 2012 2(1)73-78
     doi.org/10.1002/wcms.81
  4. Izsak,R.; Neese,F.; Klopper,W.
     Robust fitting techniques in the chain of spheres approximation to the Fock exchange: The role of the complementary space
     J. Chem. Phys., 2013 139 
     doi.org/10.1063/1.4819264
  5. Neese,F.
     Software update: the ORCA program system, version 4.0
     WIRES Comput. Molec. Sci., 2018 8(1)1-6
     doi.org/10.1002/wcms.1327
  6. Neese,F.; Wennmohs,F.; Becker,U.; Riplinger,C.
     The ORCA quantum chemistry program package
     J. Chem. Phys., 2020 152 Art. No. L224108
     doi.org/10.1063/5.0004608

List of optional additional citations

  1. Neese,F.
     Approximate second-order SCF convergence for spin unrestricted wavefunctions
     Chem. Phys. Lett., 2000 325(1-3)93-98
     doi.org/10.1016/s0009-2614(00)00662-x

Timings for individual modules:

Sum of individual times          ...      558.201 sec (=   9.303 min)
Startup calculation              ...       13.188 sec (=   0.220 min)   2.4 %
SCF iterations                   ...      449.016 sec (=   7.484 min)  80.4 %
Property calculations            ...        1.696 sec (=   0.028 min)   0.3 %
MP2 module                       ...       94.301 sec (=   1.572 min)  16.9 %
                             ****ORCA TERMINATED NORMALLY****
TOTAL RUN TIME: 0 days 0 hours 9 minutes 18 seconds 927 msec
