
                                 *****************
                                 * O   R   C   A *
                                 *****************

                                            #,                                       
                                            ###                                      
                                            ####                                     
                                            #####                                    
                                            ######                                   
                                           ########,                                 
                                     ,,################,,,,,                         
                               ,,#################################,,                 
                          ,,##########################################,,             
                       ,#########################################, ''#####,          
                    ,#############################################,,   '####,        
                  ,##################################################,,,,####,       
                ,###########''''           ''''###############################       
              ,#####''   ,,,,##########,,,,          '''####'''          '####       
            ,##' ,,,,###########################,,,                        '##       
           ' ,,###''''                  '''############,,,                           
         ,,##''                                '''############,,,,        ,,,,,,###''
      ,#''                                            '''#######################'''  
     '                                                          ''''####''''         
             ,#######,   #######,   ,#######,      ##                                
            ,#'     '#,  ##    ##  ,#'     '#,    #''#        ,####,   ,####,        
            ##       ##  ##   ,#'  ##            #'  '#       #'       #'  '#        
            ##       ##  #######   ##           ,######,      #####,   #    #        
            '#,     ,#'  ##    ##  '#,     ,#' ,#      #,     #,   #   #,  ,#        
             '#######'   ##     ##  '#######'  #'      '#     '####' # '####'        



                #########################################################
                #                        -***-                          #
                #          Department of theory and spectroscopy        #
                #                                                       #
                #                      Frank Neese                      #
                #                                                       #
                #     Directorship, Architecture, Infrastructure        #
                #                    SHARK, DRIVERS                     #
                #        Core code/Algorithms in most modules           #
                #                                                       #
                #        Max Planck Institute fuer Kohlenforschung      #
                #                Kaiser Wilhelm Platz 1                 #
                #                 D-45470 Muelheim/Ruhr                 #
                #                      Germany                          #
                #                                                       #
                #                  All rights reserved                  #
                #                        -***-                          #
                #########################################################


                         Program Version 6.0.1  -  RELEASE   -


 With contributions from (in alphabetic order):
[Max-Planck-Institut fuer Kohlenforschung]                               
  Daniel Aravena         : Magnetic Suceptibility                        
  Michael Atanasov       : Ab Initio Ligand Field Theory (pilot matlab implementation)
  Alexander A. Auer      : GIAO ZORA, VPT2 properties, NMR spectrum      
  Ute Becker             : All parallelization in ORCA, NUMFREQ, NUMCALC 
  Giovanni Bistoni       : ED, misc. LED, open-shell LED, HFLD           
  Martin Brehm           : Molecular dynamics                            
  Dmytro Bykov           : pre 5.0 version of the SCF Hessian            
  Marcos Casanova-Páez   : Triplet and SCS-CIS(D). UHF-(DLPNO)-IP/EA/STEOM-CCSD. UHF-CVS-IP/STEOM-CCSD   
  Vijay G. Chilkuri      : MRCI spin determinant printing, contributions to CSF-ICE 
  Pauline Colinet        : FMM embedding                                 
  Dipayan Datta          : RHF DLPNO-CCSD density                        
  Achintya Kumar Dutta   : EOM-CC, STEOM-CC                              
  Nicolas Foglia         : Exact transition moments, OPA infrastructure, MCD improvements    
  Dmitry Ganyushin       : Spin-Orbit,Spin-Spin,Magnetic field MRCI      
  Miquel Garcia-Rates    : C-PCM and meta-GGA Hessian, CCSD/C-PCM, Gaussian charge scheme 
  Tiago L. C. Gouveia    : GS-ROHF, GS-ROCIS                             
  Yang Guo               : DLPNO-NEVPT2, F12-NEVPT2, CIM, IAO-localization        
  Andreas Hansen         : Spin unrestricted coupled pair/coupled cluster methods 
  Ingolf Harden          : AUTO-CI MPn and infrastructure                
  Benjamin Helmich-Paris : MC-RPA, TRAH-(SCF,CASSCF), AVAS, COSX integrals, SCF dyn. polar. 
  Lee Huntington         : MR-EOM, pCC                                   
  Robert Izsak           : Overlap fitted RIJCOSX, COSX-SCS-MP3, EOM     
  Riya Kayal             : Wick's Theorem for AUTO-CI, AUTO-CI UHF-CCSDT 
  Emily Kempfer          : AUTO-CI, RHF CISDT and CCSDT                  
  Christian Kollmar      : KDIIS, OOCD, Brueckner-CCSD(T), CCSD density, CASPT2, CASPT2-K, improved NEVPT2 
  Axel Koslowski         : Symmetry handling                             
  Simone Kossmann        : meta-GGA functionals, TD-DFT gradient, OOMP2, (MP2 Hessian; deprecated post 5.0) 
  Lucas Lang             : DCDCAS                                        
  Marvin Lechner         : AUTO-CI (C++ implementation), FIC-MRCC        
  Spencer Leger          : CASSCF response                               
  Dagmar Lenk            : GEPOL surface, SMD, ORCA-2-JSON               
  Dimitrios Liakos       : Extrapolation schemes; Compound Job, initial MDCI parallelization 
  Dimitrios Manganas     : Further ROCIS development; embedding schemes. LFT, Crystal Embedding 
  Dimitrios Pantazis     : SARC Basis sets                               
  Anastasios Papadopoulos: AUTO-CI, single reference methods and gradients 
  Taras Petrenko         : pre 6.0 DFT Hessian and TD-DFT gradient, (ASA, deprecated), ECA, 1-Electron XAS/XES, NRVS 
  Peter Pinski           : DLPNO-MP2, DLPNO-MP2 Gradient                 
  Christoph Reimann      : Effective Core Potentials                     
  Marius Retegan         : Local ZFS, SOC                                
  Christoph Riplinger    : Optimizer, TS searches, QM/MM, DLPNO-CCSD(T), (RO)-DLPNO pert. Triples 
  Michael Roemelt        : Original ROCIS implementation                 
  Masaaki Saitow         : Open-shell DLPNO-CCSD energy and density      
  Barbara Sandhoefer     : DKH picture change effects                    
  Kantharuban Sivalingam : CASSCF convergence/infrastructure, NEVPT2 and variants, FIC-MRCI 
  Bernardo de Souza      : ESD, SOC TD-DFT                               
  Georgi L. Stoychev     : AutoAux, RI-MP2 NMR, DLPNO-MP2 response, X2C  
  Van Anh Tran           : RI-MP2 g-tensors                              
  Willem Van den Heuvel  : Paramagnetic NMR                              
  Zikuan Wang            : NOTCH, Electric field optimization            
  Frank Wennmohs         : Technical directorship and infrastructure     
  Hang Xu                : AUTO-CI-Response properties                   
                                                                         
[FACCTs GmbH]                                                            
  Markus Bursch, Miquel Garcia-Rates, Christoph Riplinger, Bernardo de Souza, Georgi L. Stoychev 
                                                                 
  APM, Basis sets (HGBS, AHGBS, def-TZVP (Ac-Lr), def2-XVPD (La-Lu)), CI-OPT, improved COSX, DLPNO-Multilevel,           
  DOCKER, DRACO, updates on ESD, GOAT, IRC, LR-CPCM, MBIS, meta-GGA TD-DFT gradient, ML-optimized integration grids, 
  MM, NACMEs, nearIR, NEB, NEB-TS, NL-DFT gradient (VV10), 2- and 3-layer-ONIOM, interface openCOSMO-RS, QMMM,   
  Crystal-QMMM, SF, symmetry and pop. for TD-DFT, r2SCAN hybrids, SOLVATOR                                   
                                                                         
[Other institutions]                                                     
  V. Asgeirsson          : NEB                                           
  Christoph Bannwarth    : sTDA-DFT, sTD-DFT, PBEh-3c, B97-3c, D3        
  Sebastian Ehlert       : rSCAN, r2SCAN, r2SCAN-3c, D4, dhf basis sets  
  Marvin Friede          : D4 for Fr, Ra, Ac-Lr                          
  Lars Goerigk           : TD-DFT with DH, B97 family of functionals     
  Stefan Grimme          : VdW corrections, initial TS optimization, DFT functionals, gCP, sTDA/sTD-DF 
  Waldemar Hujo          : DFT-NL                                        
  H. Jonsson             : NEB                                           
  Holger Kruse           : gCP                                           
  Marcel Mueller         : wB97X-3c, vDZP basis set                      
  Hagen Neugebauer       : wr2SCAN                                       
  Tobias Risthaus        : range-separated hybrid DFT                    
  Lukas Wittmann         : regularized MP2, r2SCAN double-hybrids, wr2SCAN        
                                                                         
We gratefully acknowledge several colleagues who have allowed us to      
interface, adapt or use parts of their codes:                            
  Ed Valeev, F. Pavosevic, A. Kumar             : LibInt (2-el integral package), F12 methods 
  Garnet Chan, S. Sharma, J. Yang, R. Olivares  : DMRG                   
  Ulf Ekstrom                                   : XCFun DFT Library      
  Mihaly Kallay                                 : mrcc  (arbitrary order and MRCC methods)
  Frank Weinhold                                : gennbo (NPA and NBO analysis)           
  Simon Mueller                                 : openCOSMO-RS                            
  Christopher J. Cramer and Donald G. Truhlar   : smd solvation model                     
  S Lehtola, MJT Oliveira, MAL Marques          : LibXC Library                           
  Liviu Ungur et al                             : ANISO software                          


 Your calculation uses the libint2 library for the computation of 2-el integrals
 For citations please refer to: http://libint.valeyev.net

 Your ORCA version has been built with support for libXC version: 6.2.2
 For citations please refer to: https://libxc.gitlab.io

 This ORCA versions uses:
   CBLAS   interface :  Fast vector & matrix operations
   LAPACKE interface :  Fast linear algebra routines
   SCALAPACK package :  Parallel linear algebra routines
   Shared memory     :  Shared parallel matrices
   BLAS/LAPACK       :  OpenBLAS 0.3.27  USE64BITINT DYNAMIC_ARCH NO_AFFINITY Haswell SINGLE_THREADED
        Core in use  :  Haswell
   Copyright (c) 2011-2014, The OpenBLAS Project


NOTE: MaxCore=2000 MB was set to SCF,MP2,MDCI,CIPSI,MRCI and CIS
      => If you want to overwrite this, your respective input block should be placed after the MaxCore statement
Your calculation utilizes the atom-pairwise dispersion correction
based on EEQ partial charges (D4)


================================================================================

----- Orbital basis set information -----
Your calculation utilizes the basis: def2-QZVPPD
   F. Weigend and R. Ahlrichs, Phys. Chem. Chem. Phys. 7, 3297 (2005).
   D. Rappoport and F. Furche, J. Chem. Phys. 133, 134105 (2010)
   D. Rappoport, J. Chem. Phys. 155, 124102 (2021).

----- AuxJ basis set information -----
Your calculation utilizes the auxiliary basis: def2/J
   F. Weigend, Phys. Chem. Chem. Phys. 8, 1057 (2006).

----- AuxC basis set information -----
Your calculation utilizes the auxiliary basis: def2-QZVPPD/C
   A. Hellweg, C. Hattig, S. Hofener and W. Klopper, Theor. Chem. Acc. 117, 587 (2007).
  A. Hellweg and D. Rappoport; Phys. Chem. Chem. Phys. 17, 1010 (2015).

================================================================================
                                        WARNINGS
                       Please study these warnings very carefully!
================================================================================


WARNING: No MP2 level density has been requested!
         To calculate MP2 level properties use
         %mp2 Density relaxed end
         or
         %mp2 Density unrelaxed end
         Otherwise for double-hybrid DFT only the energy is correct!

WARNING: The frozen-core approximation is turned on by default for 
         the MP2 part of double-hybrid DFT.

================================================================================
                                       INPUT FILE
================================================================================
NAME = kh-pg_cplx.inp
|  1> # ------------------------------------
|  2> # KH_POPG (complex); ion pair-pi
|  3> # ------------------------------------
|  4> ! SP revDSD-PBEP86-D4/2021 def2-QZVPPD RIJCOSX def2/J TightSCF CPCM
|  5> %basis
|  6>   basis   "def2-QZVPPD"
|  7>   aux     "def2/J"           # RI-J (for SCF/RIJCOSX)
|  8>   auxC    "def2-QZVPPD/C"    # required for RI-MP2 (AuxC)
|  9> end
| 10> %pal
| 11>     nprocs 10
| 12> end
| 13> %MaxCore 2000
| 14> %cpcm 
| 15>    epsilon 3.0 
| 16> end
| 17> *xyz 0 1
| 18> # POPG1
| 19> C     -1.57100     -0.80200      -4.02500
| 20> C      2.50700     -3.28100      -5.75200
| 21> O     -0.59700     -1.31300      -4.90300
| 22> O      1.62100     -0.94100      -3.63200
| 23> O      0.35900     -3.18800      -3.43900
| 24> O      1.37000     -2.45300      -5.70000
| 25> P      0.73700     -1.98500      -4.28600
| 26> H     -2.39900     -0.38800      -4.60100
| 27> H     -1.12900     -0.01800      -3.41000
| 28> H     -1.93900     -1.60300      -3.38400
| 29> H      2.76800     -3.47600      -6.79200
| 30> H      3.34100     -2.78400      -5.25600
| 31> H      2.29400     -4.22300      -5.24800
| 32> # Lys2
| 33> C      3.71500     -4.03000       0.83000
| 34> C      3.56200     -3.38200      -0.54200
| 35> H      4.36800     -2.65200      -0.70300
| 36> H      2.64500     -2.76900      -0.57000
| 37> C      3.54700     -4.35600      -1.72200
| 38> H      3.49600     -3.77200      -2.65400
| 39> H      4.49500     -4.91800      -1.76300
| 40> C      2.42400     -5.38500      -1.69000
| 41> H      2.55400     -6.11100      -0.87400
| 42> H      2.38200     -5.94600      -2.63300
| 43> N      1.10000     -4.74200      -1.50100
| 44> H      1.07600     -4.22300      -0.61400
| 45> H      0.85200     -4.05700      -2.30300
| 46> H      0.34900     -5.43600      -1.45800
| 47> H      2.91400     -4.75200       0.98200
| 48> H      4.67800     -4.53800       0.88600
| 49> H      3.66500     -3.26200       1.60200
| 50> # His3
| 51> C      1.03000      0.64700       2.54700
| 52> N      0.51600     -0.95600       0.64300
| 53> N      1.24400      0.17400      -1.10300
| 54> H      1.49300      0.34300      -2.08200
| 55> C      1.00100      0.26200       1.07200
| 56> C      0.68300     -0.96800      -0.66600
| 57> H      0.42300     -1.77800      -1.34700
| 58> C      1.45600      0.97500      -0.01600
| 59> H      1.90400      1.96100      -0.10300
| 60> H      1.45100      1.64600       2.65400
| 61> H      0.01600      0.63500       2.94500
| 62> H      1.64400     -0.06700       3.09600
| 63> *
| 64> 
| 65> 
| 66> 
| 67>                          ****END OF INPUT****
================================================================================

                       ****************************
                       * Single Point Calculation *
                       ****************************

---------------------------------
CARTESIAN COORDINATES (ANGSTROEM)
---------------------------------
  C     -1.571000   -0.802000   -4.025000
  C      2.507000   -3.281000   -5.752000
  O     -0.597000   -1.313000   -4.903000
  O      1.621000   -0.941000   -3.632000
  O      0.359000   -3.188000   -3.439000
  O      1.370000   -2.453000   -5.700000
  P      0.737000   -1.985000   -4.286000
  H     -2.399000   -0.388000   -4.601000
  H     -1.129000   -0.018000   -3.410000
  H     -1.939000   -1.603000   -3.384000
  H      2.768000   -3.476000   -6.792000
  H      3.341000   -2.784000   -5.256000
  H      2.294000   -4.223000   -5.248000
  C      3.715000   -4.030000    0.830000
  C      3.562000   -3.382000   -0.542000
  H      4.368000   -2.652000   -0.703000
  H      2.645000   -2.769000   -0.570000
  C      3.547000   -4.356000   -1.722000
  H      3.496000   -3.772000   -2.654000
  H      4.495000   -4.918000   -1.763000
  C      2.424000   -5.385000   -1.690000
  H      2.554000   -6.111000   -0.874000
  H      2.382000   -5.946000   -2.633000
  N      1.100000   -4.742000   -1.501000
  H      1.076000   -4.223000   -0.614000
  H      0.852000   -4.057000   -2.303000
  H      0.349000   -5.436000   -1.458000
  H      2.914000   -4.752000    0.982000
  H      4.678000   -4.538000    0.886000
  H      3.665000   -3.262000    1.602000
  C      1.030000    0.647000    2.547000
  N      0.516000   -0.956000    0.643000
  N      1.244000    0.174000   -1.103000
  H      1.493000    0.343000   -2.082000
  C      1.001000    0.262000    1.072000
  C      0.683000   -0.968000   -0.666000
  H      0.423000   -1.778000   -1.347000
  C      1.456000    0.975000   -0.016000
  H      1.904000    1.961000   -0.103000
  H      1.451000    1.646000    2.654000
  H      0.016000    0.635000    2.945000
  H      1.644000   -0.067000    3.096000

----------------------------
CARTESIAN COORDINATES (A.U.)
----------------------------
  NO LB      ZA    FRAG     MASS         X           Y           Z
   0 C     6.0000    0    12.011   -2.968760   -1.515560   -7.606148
   1 C     6.0000    0    12.011    4.737543   -6.200191  -10.869705
   2 O     8.0000    0    15.999   -1.128167   -2.481210   -9.265327
   3 O     8.0000    0    15.999    3.063246   -1.778232   -6.863485
   4 O     8.0000    0    15.999    0.678412   -6.024447   -6.498768
   5 O     8.0000    0    15.999    2.588925   -4.635498  -10.771439
   6 P    15.0000    0    30.974    1.392728   -3.751106   -8.099366
   7 H     1.0000    0     1.008   -4.533453   -0.733214   -8.694630
   8 H     1.0000    0     1.008   -2.133501   -0.034015   -6.443966
   9 H     1.0000    0     1.008   -3.664179   -3.029231   -6.394833
  10 H     1.0000    0     1.008    5.230762   -6.568688  -12.835020
  11 H     1.0000    0     1.008    6.313575   -5.260998   -9.932401
  12 H     1.0000    0     1.008    4.335032   -7.980313   -9.917283
  13 C     6.0000    0    12.011    7.020333   -7.615596    1.568473
  14 C     6.0000    0    12.011    6.731204   -6.391054   -1.024232
  15 H     1.0000    0     1.008    8.254324   -5.011554   -1.328477
  16 H     1.0000    0     1.008    4.998326   -5.232652   -1.077144
  17 C     6.0000    0    12.011    6.702859   -8.231647   -3.254108
  18 H     1.0000    0     1.008    6.606483   -7.128047   -5.015333
  19 H     1.0000    0     1.008    8.494319   -9.293673   -3.331587
  20 C     6.0000    0    12.011    4.580696  -10.176175   -3.193637
  21 H     1.0000    0     1.008    4.826361  -11.548116   -1.651621
  22 H     1.0000    0     1.008    4.501328  -11.236312   -4.975649
  23 N     7.0000    0    14.007    2.078699   -8.961081   -2.836479
  24 H     1.0000    0     1.008    2.033345   -7.980313   -1.160292
  25 H     1.0000    0     1.008    1.610047   -7.666619   -4.352039
  26 H     1.0000    0     1.008    0.659514  -10.272551   -2.755221
  27 H     1.0000    0     1.008    5.506662   -8.979979    1.855711
  28 H     1.0000    0     1.008    8.840139   -8.575577    1.674297
  29 H     1.0000    0     1.008    6.925846   -6.164287    3.027341
  30 C     6.0000    0    12.011    1.946418    1.222653    4.813132
  31 N     7.0000    0    14.007    0.975099   -1.806578    1.215094
  32 N     7.0000    0    14.007    2.350819    0.328812   -2.084368
  33 H     1.0000    0     1.008    2.821361    0.648176   -3.934410
  34 C     6.0000    0    12.011    1.891616    0.495108    2.025786
  35 C     6.0000    0    12.011    1.290683   -1.829255   -1.258558
  36 H     1.0000    0     1.008    0.799354   -3.359933   -2.545461
  37 C     6.0000    0    12.011    2.751441    1.842483   -0.030236
  38 H     1.0000    0     1.008    3.598039    3.705753   -0.194642
  39 H     1.0000    0     1.008    2.741993    3.110489    5.015333
  40 H     1.0000    0     1.008    0.030236    1.199976    5.565243
  41 H     1.0000    0     1.008    3.106710   -0.126612    5.850592

--------------------------------
INTERNAL COORDINATES (ANGSTROEM)
--------------------------------
 C      0   0   0     0.000000000000     0.00000000     0.00000000
 C      1   0   0     5.075239304703     0.00000000     0.00000000
 O      1   2   0     1.407366689957    18.96374866     0.00000000
 O      3   1   2     2.583282601652   103.59048648   316.70599790
 O      3   1   2     2.563758373950    99.63463830    18.25919790
 O      2   1   3     1.407500266430    18.37710513     6.56203809
 P      4   3   1     1.516280976600    35.71510685   122.68165096
 H      1   2   6     1.090300875905   128.01776603    20.37517395
 H      1   2   6     1.090066511732   102.56095676   252.99521656
 H      1   2   6     1.089911005541    96.45665187   141.32587409
 H      2   1   3     1.089837602581   127.19600056   349.23588494
 H      2   1   3     1.090220619875   103.72068458   117.18714192
 H      2   1   3     1.089380098955    96.19043268   228.99967919
 C      5   3   1     5.495094266707   141.57483152   282.96568671
 C     14   5   3     1.525023606375    34.38089426   307.85119427
 H     15  14   5     1.099298412625   109.89936940   165.11519190
 H     15  14   5     1.103377541914   110.01564155    51.55101503
 C     15  14   5     1.530131040140   115.10649683   287.92548151
 H     18  15  14     1.101036330009   108.39733489   183.48553614
 H     18  15  14     1.102827729067   110.15902640   299.26571632
 C     18  15  14     1.523480882716   114.89576545    60.01042940
 H     21  18  15     1.099923633713   111.97946095   291.67557640
 H     21  18  15     1.098059196947   110.80771012   171.37384543
 N     21  18  15     1.483962937543   111.57277243    51.93639515
 H     24  21  18     1.027962061557   110.45627768   299.88810703
 H     24  21  18     1.083481887251   112.57456291    61.10013684
 H     24  21  18     1.023467635053   111.48261983   181.31702332
 H     14   5   3     1.089031220856    76.16173195   142.33325696
 H     14   5   3     1.090215116388   130.59933429   246.30066763
 H     14   5   3     1.090095408668   114.46979456    36.88347884
 C     30  14   5     4.807965370092   137.48750208     5.78610779
 N     31  30  14     2.541460406931    56.68671457     6.73560506
 N     32  31  30     2.203497220330   101.73315103   256.44198380
 H     33  32  31     1.024208474872   157.27071974   172.77572570
 C     32  31  30     1.379416543325    30.56695686   254.52027642
 C     32  31  30     1.319664351265   136.32455402   257.43758439
 H     36  32  31     1.089706841311   126.61635166   177.83824242
 C     33  32  31     1.366789669262    73.83578165   358.86568849
 H     38  33  32     1.086493902422   122.14836040   179.96309637
 H     31  30  14     1.089353477986   123.57953903   238.96832747
 H     31  30  14     1.089377804070   124.95829208    76.56346087
 H     31  30  14     1.090042659716    42.07554730   156.89699258

---------------------------
INTERNAL COORDINATES (A.U.)
---------------------------
 C      0   0   0     0.000000000000     0.00000000     0.00000000
 C      1   0   0     9.590812350001     0.00000000     0.00000000
 O      1   2   0     2.659537614022    18.96374866     0.00000000
 O      3   1   2     4.881696643647   103.59048648   316.70599790
 O      3   1   2     4.844801200313    99.63463830    18.25919790
 O      2   1   3     2.659790036974    18.37710513     6.56203809
 P      4   3   1     2.865355787849    35.71510685   122.68165096
 H      1   2   6     2.060370059036   128.01776603    20.37517395
 H      1   2   6     2.059927174933   102.56095676   252.99521656
 H      1   2   6     2.059633310820    96.45665187   141.32587409
 H      2   1   3     2.059494599328   127.19600056   349.23588494
 H      2   1   3     2.060218397117   103.72068458   117.18714192
 H      2   1   3     2.058630042770    96.19043268   228.99967919
 C      5   3   1    10.384223244158   141.57483152   282.96568671
 C     14   5   3     2.881876963813    34.38089426   307.85119427
 H     15  14   5     2.077372939316   109.89936940   165.11519190
 H     15  14   5     2.085081376537   110.01564155    51.55101503
 C     15  14   5     2.891528614877   115.10649683   287.92548151
 H     18  15  14     2.080657127215   108.39733489   183.48553614
 H     18  15  14     2.084042380832   110.15902640   299.26571632
 C     18  15  14     2.878961638597   114.89576545    60.01042940
 H     21  18  15     2.078554435945   111.97946095   291.67557640
 H     21  18  15     2.075031161063   110.80771012   171.37384543
 N     21  18  15     2.804283544845   111.57277243    51.93639515
 H     24  21  18     1.942566772403   110.45627768   299.88810703
 H     24  21  18     2.047484037968   112.57456291    61.10013684
 H     24  21  18     1.934073537181   111.48261983   181.31702332
 H     14   5   3     2.057970758709    76.16173195   142.33325696
 H     14   5   3     2.060207997034   130.59933429   246.30066763
 H     14   5   3     2.059981782228   114.46979456    36.88347884
 C     30  14   5     9.085737810850   137.48750208     5.78610779
 N     31  30  14     4.802664149304    56.68671457     6.73560506
 N     32  31  30     4.164006283280   101.73315103   256.44198380
 H     33  32  31     1.935473521550   157.27071974   172.77572570
 C     32  31  30     2.606719491485    30.56695686   254.52027642
 C     32  31  30     2.493804212590   136.32455402   257.43758439
 H     36  32  31     2.059247496338   126.61635166   177.83824242
 C     33  32  31     2.582858157577    73.83578165   358.86568849
 H     38  33  32     2.053175921753   122.14836040   179.96309637
 H     31  30  14     2.058579736428   123.57953903   238.96832747
 H     31  30  14     2.058625706064   124.95829208    76.56346087
 H     31  30  14     2.059882101154    42.07554730   156.89699258

---------------------
BASIS SET INFORMATION
---------------------
There are 5 groups of distinct atoms

 Group   1 Type C   : 16s8p4d2f1g contracted to 8s4p4d2f1g pattern {82111111/5111/1111/11/1}
 Group   2 Type O   : 16s9p4d2f1g contracted to 8s5p4d2f1g pattern {82111111/51111/1111/11/1}
 Group   3 Type P   : 21s14p5d2f1g contracted to 10s6p5d2f1g pattern {10311111111/821111/11111/11/1}
 Group   4 Type H   : 7s4p2d1f contracted to 4s4p2d1f pattern {4111/1111/11/1}
 Group   5 Type N   : 16s8p4d2f1g contracted to 8s4p4d2f1g pattern {82111111/5111/1111/11/1}

Atom   0C    basis set group =>   1
Atom   1C    basis set group =>   1
Atom   2O    basis set group =>   2
Atom   3O    basis set group =>   2
Atom   4O    basis set group =>   2
Atom   5O    basis set group =>   2
Atom   6P    basis set group =>   3
Atom   7H    basis set group =>   4
Atom   8H    basis set group =>   4
Atom   9H    basis set group =>   4
Atom  10H    basis set group =>   4
Atom  11H    basis set group =>   4
Atom  12H    basis set group =>   4
Atom  13C    basis set group =>   1
Atom  14C    basis set group =>   1
Atom  15H    basis set group =>   4
Atom  16H    basis set group =>   4
Atom  17C    basis set group =>   1
Atom  18H    basis set group =>   4
Atom  19H    basis set group =>   4
Atom  20C    basis set group =>   1
Atom  21H    basis set group =>   4
Atom  22H    basis set group =>   4
Atom  23N    basis set group =>   5
Atom  24H    basis set group =>   4
Atom  25H    basis set group =>   4
Atom  26H    basis set group =>   4
Atom  27H    basis set group =>   4
Atom  28H    basis set group =>   4
Atom  29H    basis set group =>   4
Atom  30C    basis set group =>   1
Atom  31N    basis set group =>   5
Atom  32N    basis set group =>   5
Atom  33H    basis set group =>   4
Atom  34C    basis set group =>   1
Atom  35C    basis set group =>   1
Atom  36H    basis set group =>   4
Atom  37C    basis set group =>   1
Atom  38H    basis set group =>   4
Atom  39H    basis set group =>   4
Atom  40H    basis set group =>   4
Atom  41H    basis set group =>   4
---------------------------------
AUXILIARY/J BASIS SET INFORMATION
---------------------------------
There are 5 groups of distinct atoms

 Group   1 Type C   : 12s5p4d2f1g contracted to 6s4p3d1f1g pattern {711111/2111/211/2/1}
 Group   2 Type O   : 12s5p4d2f1g contracted to 6s4p3d1f1g pattern {711111/2111/211/2/1}
 Group   3 Type P   : 14s5p5d2f1g contracted to 8s4p3d1f1g pattern {71111111/2111/311/2/1}
 Group   4 Type H   : 5s2p1d contracted to 3s1p1d pattern {311/2/1}
 Group   5 Type N   : 12s5p4d2f1g contracted to 6s4p3d1f1g pattern {711111/2111/211/2/1}

Atom   0C    basis set group =>   1
Atom   1C    basis set group =>   1
Atom   2O    basis set group =>   2
Atom   3O    basis set group =>   2
Atom   4O    basis set group =>   2
Atom   5O    basis set group =>   2
Atom   6P    basis set group =>   3
Atom   7H    basis set group =>   4
Atom   8H    basis set group =>   4
Atom   9H    basis set group =>   4
Atom  10H    basis set group =>   4
Atom  11H    basis set group =>   4
Atom  12H    basis set group =>   4
Atom  13C    basis set group =>   1
Atom  14C    basis set group =>   1
Atom  15H    basis set group =>   4
Atom  16H    basis set group =>   4
Atom  17C    basis set group =>   1
Atom  18H    basis set group =>   4
Atom  19H    basis set group =>   4
Atom  20C    basis set group =>   1
Atom  21H    basis set group =>   4
Atom  22H    basis set group =>   4
Atom  23N    basis set group =>   5
Atom  24H    basis set group =>   4
Atom  25H    basis set group =>   4
Atom  26H    basis set group =>   4
Atom  27H    basis set group =>   4
Atom  28H    basis set group =>   4
Atom  29H    basis set group =>   4
Atom  30C    basis set group =>   1
Atom  31N    basis set group =>   5
Atom  32N    basis set group =>   5
Atom  33H    basis set group =>   4
Atom  34C    basis set group =>   1
Atom  35C    basis set group =>   1
Atom  36H    basis set group =>   4
Atom  37C    basis set group =>   1
Atom  38H    basis set group =>   4
Atom  39H    basis set group =>   4
Atom  40H    basis set group =>   4
Atom  41H    basis set group =>   4
---------------------------------
AUXILIARY/C BASIS SET INFORMATION
---------------------------------
There are 5 groups of distinct atoms

 Group   1 Type C   : 10s9p8d6f3g1h contracted to 10s9p8d6f3g1h pattern {1111111111/111111111/11111111/111111/111/1}
 Group   2 Type O   : 10s9p8d6f3g1h contracted to 10s9p8d6f3g1h pattern {1111111111/111111111/11111111/111111/111/1}
 Group   3 Type P   : 13s11p10d7f3g1h contracted to 13s11p10d7f3g1h pattern {1111111111111/11111111111/1111111111/1111111/111/1}
 Group   4 Type H   : 7s5p4d2f1g contracted to 7s5p4d2f1g pattern {1111111/11111/1111/11/1}
 Group   5 Type N   : 10s9p8d6f3g1h contracted to 10s9p8d6f3g1h pattern {1111111111/111111111/11111111/111111/111/1}

Atom   0C    basis set group =>   1
Atom   1C    basis set group =>   1
Atom   2O    basis set group =>   2
Atom   3O    basis set group =>   2
Atom   4O    basis set group =>   2
Atom   5O    basis set group =>   2
Atom   6P    basis set group =>   3
Atom   7H    basis set group =>   4
Atom   8H    basis set group =>   4
Atom   9H    basis set group =>   4
Atom  10H    basis set group =>   4
Atom  11H    basis set group =>   4
Atom  12H    basis set group =>   4
Atom  13C    basis set group =>   1
Atom  14C    basis set group =>   1
Atom  15H    basis set group =>   4
Atom  16H    basis set group =>   4
Atom  17C    basis set group =>   1
Atom  18H    basis set group =>   4
Atom  19H    basis set group =>   4
Atom  20C    basis set group =>   1
Atom  21H    basis set group =>   4
Atom  22H    basis set group =>   4
Atom  23N    basis set group =>   5
Atom  24H    basis set group =>   4
Atom  25H    basis set group =>   4
Atom  26H    basis set group =>   4
Atom  27H    basis set group =>   4
Atom  28H    basis set group =>   4
Atom  29H    basis set group =>   4
Atom  30C    basis set group =>   1
Atom  31N    basis set group =>   5
Atom  32N    basis set group =>   5
Atom  33H    basis set group =>   4
Atom  34C    basis set group =>   1
Atom  35C    basis set group =>   1
Atom  36H    basis set group =>   4
Atom  37C    basis set group =>   1
Atom  38H    basis set group =>   4
Atom  39H    basis set group =>   4
Atom  40H    basis set group =>   4
Atom  41H    basis set group =>   4


           ************************************************************
           *        Program running with 10 parallel MPI-processes    *
           *              working on a common directory               *
           ************************************************************
------------------------------------------------------------------------------
                             ORCA STARTUP CALCULATIONS
                           -- RI-GTO INTEGRALS CHOSEN --
------------------------------------------------------------------------------
------------------------------------------------------------------------------
                   ___                                                        
                  /   \      - P O W E R E D   B Y -                         
                 /     \                                                     
                 |  |  |   _    _      __       _____    __    __             
                 |  |  |  | |  | |    /  \     |  _  \  |  |  /  |          
                  \  \/   | |  | |   /    \    | | | |  |  | /  /          
                 / \  \   | |__| |  /  /\  \   | |_| |  |  |/  /          
                |  |  |   |  __  | /  /__\  \  |    /   |      \           
                |  |  |   | |  | | |   __   |  |    \   |  |\   \          
                \     /   | |  | | |  |  |  |  | |\  \  |  | \   \       
                 \___/    |_|  |_| |__|  |__|  |_| \__\ |__|  \__/        
                                                                              
                      - O R C A' S   B I G   F R I E N D -                    
                                      &                                       
                       - I N T E G R A L  F E E D E R -                       
                                                                              
 v1 FN, 2020, v2 2021, v3 2022-2024                                           
------------------------------------------------------------------------------


----------------------
SHARK INTEGRAL PACKAGE
----------------------

Number of atoms                             ...     42
Number of basis functions                   ...   1951
Number of shells                            ...    615
Maximum angular momentum                    ...      4
Integral batch strategy                     ... SHARK/LIBINT Hybrid
RI-J (if used) integral strategy            ... SPLIT-RIJ (Revised 2003 algorithm where possible)
Printlevel                                  ...      1
Contraction scheme used                     ... SEGMENTED contraction
Prescreening option                         ... SCHWARTZ
   Thresh                                   ... 2.500e-11
   Tcut                                     ... 2.500e-12
   Tpresel                                  ... 2.500e-12 
Coulomb Range Separation                    ... NOT USED
Exchange Range Separation                   ... NOT USED
Multipole approximations                    ... NOT USED
Finite Nucleus Model                        ... NOT USED
CABS basis                                  ... NOT available
Auxiliary Coulomb fitting basis             ... AVAILABLE
   # of basis functions in Aux-J            ...   1148
   # of shells in Aux-J                     ...    392
   Maximum angular momentum in Aux-J        ...      4
Auxiliary J/K fitting basis                 ... NOT available
Auxiliary Correlation fitting basis         ... AVAILABLE
   # of basis functions in Aux-C            ...   4412
   # of shells in Aux-C                     ...   1130
   Maximum angular momentum in Aux-C        ...      5
Auxiliary 'external' fitting basis          ... NOT available

Checking pre-screening integrals            ... done (  0.0 sec) Dimension = 615
Check shell pair data                       ... done (  0.0 sec)
Shell pair information
Shell pair cut-off parameter TPreSel        ...   2.5e-12
Total number of shell pairs                 ...    189420
Shell pairs after pre-screening             ...    127572
Total number of primitive shell pairs       ...    415389
Primitive shell pairs kept                  ...    205735
          la=0 lb=0:  19545 shell pairs
          la=1 lb=0:  30450 shell pairs
          la=1 lb=1:  11880 shell pairs
          la=2 lb=0:  19243 shell pairs
          la=2 lb=1:  15255 shell pairs
          la=2 lb=2:   4817 shell pairs
          la=3 lb=0:   8217 shell pairs
          la=3 lb=1:   6830 shell pairs
          la=3 lb=2:   4084 shell pairs
          la=3 lb=3:    834 shell pairs
          la=4 lb=0:   2515 shell pairs
          la=4 lb=1:   2075 shell pairs
          la=4 lb=2:   1254 shell pairs
          la=4 lb=3:    487 shell pairs
          la=4 lb=4:     86 shell pairs

Calculating one electron integrals          ... done (  0.3 sec)
Calculating RI/J V-Matrix + Cholesky decomp.... done (  0.0 sec)
Calculating RI/C V-Matrix + Cholesky decomp.... done (  0.6 sec)
Calculating Nuclear repulsion               ... done (  0.0 sec) ENN=   1641.193543473014 Eh

Diagonalization of the overlap matrix:
Smallest eigenvalue                        ... 1.988e-08
Time for diagonalization                   ...    0.559 sec
Threshold for overlap eigenvalues          ... 1.000e-07
Number of eigenvalues below threshold      ... 5
Smallest eigenvalue above threshold        ... 1.176e-07

IMPORTANT:
Smallest eigenvalue of S below the DiffSThresh (1.000e-06) while
Thresh>1e-12 and/or TCut>1e-13! In order to avoid SCF convergence issues,
Thresh will be set to at least 1e-12 and TCut to at least 1e-13.
This can be turned off by adding %SCF DiffSThresh -1 END to the input.

Time for construction of square roots      ...    0.320 sec
Total time needed                          ...    0.902 sec

-------------------
DFT GRID GENERATION
-------------------

General Integration Accuracy     IntAcc      ... 4.388
Radial Grid Type                 RadialGrid  ... OptM3 with GC (2021)
Angular Grid (max. ang.)         AngularGrid ... 4 (Lebedev-302)
Angular grid pruning method      GridPruning ... 4 (adaptive)
Weight generation scheme         WeightScheme... mBecke (2022)
Basis function cutoff            BFCut       ... 1.0000e-11
Integration weight cutoff        WCut        ... 1.0000e-14
Partially contracted basis set               ... off
Rotationally invariant grid construction     ... off
Angular grids for H and He will be reduced by one unit
Diffuse basis detected: some atoms will have their outermost
                        angular grid increased by 1.

Total number of grid points                  ...   193972
Total number of batches                      ...     3054
Average number of points per batch           ...       63
Average number of grid points per atom       ...     4618

--------------------
COSX GRID GENERATION
--------------------

GRIDX 1
-------
General Integration Accuracy     IntAcc      ... 3.816
Radial Grid Type                 RadialGrid  ... OptM3 with GC (2021)
Angular Grid (max. ang.)         AngularGrid ... 1 (Lebedev-50)
Angular grid pruning method      GridPruning ... 4 (adaptive)
Weight generation scheme         WeightScheme... mBecke (2022)
Basis function cutoff            BFCut       ... 1.0000e-11
Integration weight cutoff        WCut        ... 1.0000e-14
Partially contracted basis set               ... on
Rotationally invariant grid construction     ... off
Angular grids for H and He will be reduced by one unit
Diffuse basis detected: some atoms will have their outermost
                        angular grid increased by 1.

Total number of grid points                  ...    25187
Total number of batches                      ...      220
Average number of points per batch           ...      114
Average number of grid points per atom       ...      600
UseSFitting                                  ... on

GRIDX 2
-------
General Integration Accuracy     IntAcc      ... 4.020
Radial Grid Type                 RadialGrid  ... OptM3 with GC (2021)
Angular Grid (max. ang.)         AngularGrid ... 2 (Lebedev-110)
Angular grid pruning method      GridPruning ... 4 (adaptive)
Weight generation scheme         WeightScheme... mBecke (2022)
Basis function cutoff            BFCut       ... 1.0000e-11
Integration weight cutoff        WCut        ... 1.0000e-14
Partially contracted basis set               ... on
Rotationally invariant grid construction     ... off
Angular grids for H and He will be reduced by one unit
Diffuse basis detected: some atoms will have their outermost
                        angular grid increased by 1.

Total number of grid points                  ...    55596
Total number of batches                      ...      457
Average number of points per batch           ...      121
Average number of grid points per atom       ...     1324
UseSFitting                                  ... on

GRIDX 3
-------
General Integration Accuracy     IntAcc      ... 4.338
Radial Grid Type                 RadialGrid  ... OptM3 with GC (2021)
Angular Grid (max. ang.)         AngularGrid ... 3 (Lebedev-194)
Angular grid pruning method      GridPruning ... 4 (adaptive)
Weight generation scheme         WeightScheme... mBecke (2022)
Basis function cutoff            BFCut       ... 1.0000e-11
Integration weight cutoff        WCut        ... 1.0000e-14
Partially contracted basis set               ... on
Rotationally invariant grid construction     ... off
Angular grids for H and He will be reduced by one unit
Diffuse basis detected: some atoms will have their outermost
                        angular grid increased by 1.

Total number of grid points                  ...   123957
Total number of batches                      ...      991
Average number of points per batch           ...      125
Average number of grid points per atom       ...     2951
UseSFitting                                  ... on
Initializing property integral containers    ... done (  0.0 sec)

SHARK setup successfully completed in  10.8 seconds

Maximum memory used throughout the entire STARTUP-calculation: 298.4 MB


           ************************************************************
           *        Program running with 10 parallel MPI-processes    *
           *              working on a common directory               *
           ************************************************************
-------------------------------------------------------------------------------
                                 ORCA GUESS
                   Start orbitals & Density for SCF / CASSCF
-------------------------------------------------------------------------------

------------
SCF SETTINGS
------------
Hamiltonian:
 Density Functional     Method          .... DFT(GTOs)
 Exchange Functional    Exchange        .... PBE
   PBE kappa parameter   XKappa         ....  0.804000
   PBE mue parameter    XMuePBE         ....  0.219520
 Correlation Functional Correlation     .... P86
 LDA part of GGA corr.  LDAOpt          .... VWN-5
 Gradients option       PostSCFGGA      .... off
 Hybrid DFT is turned on
   Fraction HF Exchange ScalHFX         ....  0.690000
   Scaling of DF-GGA-X  ScalDFX         ....  0.310000
   Scaling of DF-GGA-C  ScalDFC         ....  0.422400
   Scaling of DF-LDA-C  ScalLDAC        ....  0.422400
   Perturbative correction              ....  1.000000
 RI-approximation to the Coulomb term is turned on
   Number of AuxJ basis functions       .... 1148
   RIJ-COSX (HFX calculated with COS-X)).... on


General Settings:
 Integral files         IntName         .... kh-pg_cplx
 Hartree-Fock type      HFTyp           .... RHF
 Total Charge           Charge          ....    0
 Multiplicity           Mult            ....    1
 Number of Electrons    NEL             ....  152
 Basis Dimension        Dim             .... 1951
 Nuclear Repulsion      ENuc            ....   1641.1935434730 Eh

Convergence Acceleration:
 AO-DIIS                CNVDIIS         .... on
   Start iteration      DIISMaxIt       ....    12
   Startup error        DIISStart       ....  0.200000
   # of expansion vecs  DIISMaxEq       ....     5
   Bias factor          DIISBfac        ....   1.050
   Max. coefficient     DIISMaxC        ....  10.000
 MO-DIIS                CNVKDIIS        .... off
 Trust-Rad. Augm. Hess. CNVTRAH         .... auto
   Auto Start mean grad. ratio tolernc. ....  1.125000
   Auto Start start iteration           ....    50
   Auto Start num. interpolation iter.  ....    10
   Max. Number of Micro iterations      ....    24
   Max. Number of Macro iterations      .... Maxiter - #DIIS iter
   Number of Davidson start vectors     ....     2
   Converg. threshold    (grad. norm)   ....   1.000e-05
   Grad. Scal. Fac. for Micro threshold ....   0.100
   Minimum threshold for Micro iter.    ....   1.000e-02
   NR start threshold (gradient norm)   ....   1.000e-04
   Initial trust radius                 ....   0.400
   Minimum AH scaling param. (alpha)    ....   1.000
   Maximum AH scaling param. (alpha)    .... 1000.000
   Quad. conv. algorithm                .... NR
   White noise on init. David. guess    .... on
   Maximum white noise                  ....   0.010
   Pseudo random numbers                .... off
   Inactive MOs                         .... canonical
   Orbital update algorithm             .... Taylor
   Preconditioner                       .... Diag
   Full preconditioner red. dimension   ....   250
 SOSCF                  CNVSOSCF        .... on
   Start iteration      SOSCFMaxIt      ....   150
   Startup grad/error   SOSCFStart      ....  0.003300
   Hessian update       SOSCFHessUp     .... L-BFGS
 Level Shifting         CNVShift        .... on
   Level shift para.    LevelShift      ....    0.2500
   Turn off err/grad.   ShiftErr        ....    0.0010
 Zerner damping         CNVZerner       .... off
 Static damping         CNVDamp         .... on
   Fraction old density DampFac         ....    0.7000
   Max. Damping (<1)    DampMax         ....    0.9800
   Min. Damping (>=0)   DampMin         ....    0.0000
   Turn off err/grad.   DampErr         ....    0.1000

SCF Procedure:
 Maximum # iterations   MaxIter         ....   125
 SCF integral mode      SCFMode         .... Direct
   Integral package                     .... SHARK and LIBINT hybrid scheme
 Reset frequency        DirectResetFreq ....    20
 Integral Threshold     Thresh          ....  1.000e-12 Eh
 Primitive CutOff       TCut            ....  1.000e-13 Eh

Convergence Tolerance:
 Convergence Check Mode ConvCheckMode   .... Total+1el-Energy
 Convergence forced     ConvForced      .... 0
 Energy Change          TolE            ....  1.000e-08 Eh
 1-El. energy change                    ....  1.000e-05 Eh
 Orbital Gradient       TolG            ....  1.000e-05
 Orbital Rotation angle TolX            ....  1.000e-05
 DIIS Error             TolErr          ....  5.000e-07

------------------------------
INITIAL GUESS: MODEL POTENTIAL
------------------------------
Loading Hartree-Fock densities                     ... done
Calculating cut-offs                               ... done
Initializing the effective Hamiltonian             ... done
Setting up the integral package (SHARK)            ... done
Starting the Coulomb interaction                   ... done (   2.1 sec)
Making the grid                                    ... done (   0.4 sec)
Mapping shells                                     ... done
Starting the XC term evaluation                    ... done (   1.6 sec)
  promolecular density results
     # of electrons  =    151.981775645
     EX              =   -133.110136352
     EC              =      0.025398289
     EX+EC           =   -133.084738063
Transforming the Hamiltonian                       ... done (   0.3 sec)
Diagonalizing the Hamiltonian                      ... done (   0.7 sec)
Back transforming the eigenvectors                 ... done (   0.2 sec)
Now organizing SCF variables                       ... done
                      ------------------
                      INITIAL GUESS DONE (   5.5 sec)
                      ------------------
             **** ENERGY FILE WAS UPDATED (kh-pg_cplx.en.tmp) ****
Finished Guess after   7.3 sec
Maximum memory used throughout the entire GUESS-calculation: 287.6 MB


           ************************************************************
           *        Program running with 10 parallel MPI-processes    *
           *              working on a common directory               *
           ************************************************************

-------------------------------------------------------------------------------------------
                                      ORCA LEAN-SCF
                              memory conserving SCF solver
-------------------------------------------------------------------------------------------

--------------------
CPCM SOLVATION MODEL
--------------------
CPCM parameters:
  Epsilon                                         ...       3.0000
  Refrac                                          ...       1.3300
  Rsolv                                           ...       1.3000
  Surface type                                    ... GAUSSIAN VDW
  Discretization scheme                           ... Constant charge density
    Threshold for H atoms                         ...       5.0000 (charges/Ang^2)
    Threshold for non-H atoms                     ...       5.0000 (charges/Ang^2)
  Epsilon function type                           ...         CPCM
Solvent:                                          ... CUSTOM
Radii:
  Scheme                                          ... Element-dependent radii
  Radius for C  used is    3.8550 Bohr (=   2.0400 Ang.)
  Radius for O  used is    3.4469 Bohr (=   1.8240 Ang.)
  Radius for P  used is    4.0818 Bohr (=   2.1600 Ang.)
  Radius for H  used is    2.4944 Bohr (=   1.3200 Ang.)
  Radius for N  used is    3.5149 Bohr (=   1.8600 Ang.)
Calculating surface                               ...        done! (  0.0s)
Cavity surface points                             ...         3636
Cavity Volume                                     ...    2358.4192
Cavity Surface-area                               ...    1313.0057
Calculating surface distance matrix               ...        done! (  0.1s)
Performing Cholesky decomposition & store         ...        done! (  0.3s)
Overall time for CPCM initialization              ...                 0.4s

----------------------------------------D-I-I-S--------------------------------------------
Iteration    Energy (Eh)           Delta-E    RMSDP     MaxDP     DIISErr   Damp  Time(sec)
-------------------------------------------------------------------------------------------
               ***  Starting incremental Fock matrix formation  ***
    1    -1198.3106696853012636     0.00e+00  5.47e-03  2.74e+00  3.68e-01  0.700  59.5
    2    -1198.5691070076402411    -2.58e-01  5.79e-03  2.71e+00  1.88e-01  0.700  34.5
                               ***Turning on AO-DIIS***
    3    -1198.7020990755233925    -1.33e-01  7.09e-03  2.67e+00  8.22e-02  0.700  32.9
    4    -1198.7825756045028811    -8.05e-02  2.26e-02  9.14e+00  5.91e-02  0.000  32.4
    5    -1198.9587176869488303    -1.76e-01  3.17e-03  1.37e+00  8.73e-03  0.000  33.1
    6    -1198.9590739885386483    -3.56e-04  5.60e-04  2.35e-01  4.01e-03  0.000  30.3
                              *** Initializing SOSCF ***
---------------------------------------S-O-S-C-F--------------------------------------
Iteration    Energy (Eh)           Delta-E    RMSDP     MaxDP     MaxGrad    Time(sec)
--------------------------------------------------------------------------------------
    7    -1198.9591390610905819    -6.51e-05  2.89e-04  9.51e-02  1.33e-03    30.5
               *** Restarting incremental Fock matrix formation ***
    8    -1198.9591464881748379    -7.43e-06  2.62e-02  1.09e+01  1.96e-04    58.6
    9    -1198.9591742055670238    -2.77e-05  6.09e-04  2.04e-01  8.80e-05    52.5
   10    -1198.9591746929847886    -4.87e-07  1.65e-04  6.29e-02  3.11e-05    47.6
   11    -1198.9591749087082917    -2.16e-07  1.13e-04  3.68e-02  1.36e-05    44.8
   12    -1198.9591748820478188     2.67e-08  2.86e-05  7.53e-03  3.51e-06    43.5
   13    -1198.9591748746681787     7.38e-09  2.61e-05  6.01e-03  1.52e-06    39.9
                 **** Energy Check signals convergence ****

               *****************************************************
               *                     SUCCESS                       *
               *           SCF CONVERGED AFTER  13 CYCLES          *
               *****************************************************

Recomputing exchange energy using gridx3       ... done (   97.311 sec)
Old exchange energy                            :    -93.948753218 Eh
New exchange energy                            :    -93.948790624 Eh
Exchange energy change after final integration :     -0.000037406 Eh
Total energy after final integration           :  -1198.959212280 Eh
             **** ENERGY FILE WAS UPDATED (kh-pg_cplx.en.tmp) ****

----------------
TOTAL SCF ENERGY
----------------

Total Energy       :      -1198.95921228045040 Eh          -32625.33881 eV

Components:
Nuclear Repulsion  :       1641.19354347301373 Eh           44659.14675 eV
Electronic Energy  :      -2840.11652390224663 Eh          -77283.49963 eV
One Electron Energy:      -4908.89370758251607 Eh         -133577.78875 eV
Two Electron Energy:       2068.77718368026945 Eh           56294.28911 eV
CPCM Dielectric    :         -0.03619444543525 Eh              -0.98490 eV

Virial components:
Potential Energy   :      -2394.95854895328603 Eh          -65170.13530 eV
Kinetic Energy     :       1195.99933667283562 Eh           32544.79650 eV
Virial Ratio       :          2.00247481375353

DFT components:
N(Alpha)           :       76.000046289274 electrons
N(Beta)            :       76.000046289274 electrons
N(Total)           :      152.000092578549 electrons
E(X)               :      -42.028492467689 Eh       
E(C)               :       -2.406726245500 Eh       
E(XC)              :      -44.435218713188 Eh       

CPCM Solvation Model Properties:
Surface-charge          :         -0.03456124302114
Corrected charge        :         -0.00000000000000
Outlying charge corr.   :          0.00004314066016 Eh               0.00117 eV
Free-energy (cav+disp)  :  This term is not implemented in the current solvation scheme

---------------
SCF CONVERGENCE
---------------

  Last Energy change         ...   -7.3796e-09  Tolerance :   1.0000e-08
  Last MAX-Density change    ...    6.0098e-03  Tolerance :   1.0000e-07
  Last RMS-Density change    ...    2.6058e-05  Tolerance :   5.0000e-09
  Last DIIS Error            ...    1.3259e-03  Tolerance :   5.0000e-07
  Last Orbital Gradient      ...    1.5160e-06  Tolerance :   1.0000e-05
  Last Orbital Rotation      ...    2.0963e-06  Tolerance :   1.0000e-05


----------------
ORBITAL ENERGIES
----------------

  NO   OCC          E(Eh)            E(eV) 
   0   2.0000     -78.919823     -2147.5176 
   1   2.0000     -20.006322      -544.3997 
   2   2.0000     -20.005954      -544.3897 
   3   2.0000     -19.950226      -542.8733 
   4   2.0000     -19.928581      -542.2843 
   5   2.0000     -15.174850      -412.9287 
   6   2.0000     -15.111303      -411.1994 
   7   2.0000     -15.050889      -409.5555 
   8   2.0000     -10.880634      -296.0771 
   9   2.0000     -10.860589      -295.5317 
  10   2.0000     -10.858070      -295.4631 
  11   2.0000     -10.853497      -295.3387 
  12   2.0000     -10.828927      -294.6701 
  13   2.0000     -10.827766      -294.6385 
  14   2.0000     -10.827460      -294.6302 
  15   2.0000     -10.815770      -294.3121 
  16   2.0000     -10.805673      -294.0373 
  17   2.0000     -10.801802      -293.9320 
  18   2.0000      -7.199113      -195.8978 
  19   2.0000      -5.197214      -141.4234 
  20   2.0000      -5.196411      -141.4015 
  21   2.0000      -5.194148      -141.3400 
  22   2.0000      -1.281013       -34.8581 
  23   2.0000      -1.231156       -33.5015 
  24   2.0000      -1.207531       -32.8586 
  25   2.0000      -1.183391       -32.2017 
  26   2.0000      -1.162969       -31.6460 
  27   2.0000      -1.122418       -30.5426 
  28   2.0000      -1.042032       -28.3551 
  29   2.0000      -0.981031       -26.6952 
  30   2.0000      -0.920435       -25.0463 
  31   2.0000      -0.899227       -24.4692 
  32   2.0000      -0.867378       -23.6025 
  33   2.0000      -0.839066       -22.8322 
  34   2.0000      -0.825896       -22.4738 
  35   2.0000      -0.810227       -22.0474 
  36   2.0000      -0.724737       -19.7211 
  37   2.0000      -0.719133       -19.5686 
  38   2.0000      -0.698847       -19.0166 
  39   2.0000      -0.687013       -18.6946 
  40   2.0000      -0.684327       -18.6215 
  41   2.0000      -0.667165       -18.1545 
  42   2.0000      -0.654109       -17.7992 
  43   2.0000      -0.618009       -16.8169 
  44   2.0000      -0.603107       -16.4114 
  45   2.0000      -0.580935       -15.8080 
  46   2.0000      -0.578276       -15.7357 
  47   2.0000      -0.568210       -15.4618 
  48   2.0000      -0.565120       -15.3777 
  49   2.0000      -0.561125       -15.2690 
  50   2.0000      -0.546575       -14.8731 
  51   2.0000      -0.538222       -14.6458 
  52   2.0000      -0.535537       -14.5727 
  53   2.0000      -0.531723       -14.4689 
  54   2.0000      -0.520748       -14.1703 
  55   2.0000      -0.504951       -13.7404 
  56   2.0000      -0.503245       -13.6940 
  57   2.0000      -0.491872       -13.3845 
  58   2.0000      -0.488524       -13.2934 
  59   2.0000      -0.483931       -13.1684 
  60   2.0000      -0.472629       -12.8609 
  61   2.0000      -0.467264       -12.7149 
  62   2.0000      -0.452639       -12.3169 
  63   2.0000      -0.449657       -12.2358 
  64   2.0000      -0.429976       -11.7002 
  65   2.0000      -0.426990       -11.6190 
  66   2.0000      -0.424589       -11.5537 
  67   2.0000      -0.411442       -11.1959 
  68   2.0000      -0.408962       -11.1284 
  69   2.0000      -0.406489       -11.0611 
  70   2.0000      -0.395052       -10.7499 
  71   2.0000      -0.371806       -10.1174 
  72   2.0000      -0.366340        -9.9686 
  73   2.0000      -0.356171        -9.6919 
  74   2.0000      -0.343987        -9.3604 
  75   2.0000      -0.272871        -7.4252 
  76   0.0000       0.028887         0.7860 
  77   0.0000       0.042599         1.1592 
  78   0.0000       0.045059         1.2261 
  79   0.0000       0.046743         1.2719 
  80   0.0000       0.058978         1.6049 
  81   0.0000       0.061735         1.6799 
  82   0.0000       0.062845         1.7101 
  83   0.0000       0.064500         1.7551 
  84   0.0000       0.072464         1.9718 
  85   0.0000       0.079284         2.1574 
  86   0.0000       0.085568         2.3284 
*Only the first 10 virtual orbitals were printed.

                    ********************************
                    * MULLIKEN POPULATION ANALYSIS *
                    ********************************

-----------------------
MULLIKEN ATOMIC CHARGES
-----------------------
   0 C :   -0.201839
   1 C :   -0.206432
   2 O :   -0.559353
   3 O :   -0.741019
   4 O :   -0.654500
   5 O :   -0.666812
   6 P :    1.075434
   7 H :   -0.038024
   8 H :    0.234449
   9 H :    0.343938
  10 H :   -0.059232
  11 H :    0.370851
  12 H :    0.182326
  13 C :   -0.787593
  14 C :    0.161102
  15 H :    0.042017
  16 H :   -0.061948
  17 C :    0.016409
  18 H :    0.025074
  19 H :    0.047408
  20 C :    0.043358
  21 H :    0.118866
  22 H :    0.101178
  23 N :   -0.139166
  24 H :    0.331995
  25 H :    0.193705
  26 H :    0.252306
  27 H :    0.091568
  28 H :    0.276736
  29 H :    0.157051
  30 C :   -0.775255
  31 N :   -0.754580
  32 N :   -0.228737
  33 H :    0.383060
  34 C :    0.345095
  35 C :    0.451387
  36 H :   -0.329549
  37 C :    0.088620
  38 H :    0.506051
  39 H :    0.166057
  40 H :    0.089407
  41 H :    0.108594
Sum of atomic charges:   -0.0000000

--------------------------------
MULLIKEN REDUCED ORBITAL CHARGES
--------------------------------
  0 C s       :     3.196236  s :     3.196236
      pz      :     0.993471  p :     2.863066
      px      :     0.768272
      py      :     1.101324
      dz2     :     0.011392  d :     0.126006
      dxz     :     0.016807
      dyz     :     0.045321
      dx2y2   :     0.020782
      dxy     :     0.031704
      f0      :     0.001186  f :     0.014832
      f+1     :     0.002926
      f-1     :     0.000974
      f+2     :     0.003090
      f-2     :     0.003112
      f+3     :     0.001915
      f-3     :     0.001628
      g0      :     0.000126  g :     0.001700
      g+1     :     0.000250
      g-1     :     0.000077
      g+2     :     0.000167
      g-2     :     0.000256
      g+3     :     0.000331
      g-3     :     0.000291
      g+4     :     0.000102
      g-4     :     0.000102

  1 C s       :     3.181321  s :     3.181321
      pz      :     1.125089  p :     2.888733
      px      :     0.777290
      py      :     0.986354
      dz2     :     0.018150  d :     0.119814
      dxz     :     0.018504
      dyz     :     0.022939
      dx2y2   :     0.041510
      dxy     :     0.018711
      f0      :     0.002354  f :     0.014865
      f+1     :     0.001166
      f-1     :     0.000733
      f+2     :     0.000170
      f-2     :     0.003173
      f+3     :     0.004749
      f-3     :     0.002520
      g0      :     0.000109  g :     0.001699
      g+1     :     0.000226
      g-1     :     0.000136
      g+2     :     0.000075
      g-2     :     0.000174
      g+3     :     0.000041
      g-3     :     0.000220
      g+4     :     0.000345
      g-4     :     0.000373

  2 O s       :     3.907048  s :     3.907048
      pz      :     1.589833  p :     4.639703
      px      :     1.359536
      py      :     1.690333
      dz2     :     0.001145  d :     0.008399
      dxz     :     0.002555
      dyz     :     0.000947
      dx2y2   :     0.003956
      dxy     :    -0.000205
      f0      :     0.000278  f :     0.004045
      f+1     :     0.000468
      f-1     :     0.000209
      f+2     :     0.000721
      f-2     :     0.000906
      f+3     :     0.000674
      f-3     :     0.000788
      g0      :     0.000016  g :     0.000159
      g+1     :     0.000019
      g-1     :     0.000005
      g+2     :     0.000018
      g-2     :     0.000029
      g+3     :     0.000024
      g-3     :     0.000031
      g+4     :     0.000008
      g-4     :     0.000009

  3 O s       :     3.864908  s :     3.864908
      pz      :     1.673405  p :     4.855490
      px      :     1.614218
      py      :     1.567867
      dz2     :     0.002569  d :     0.018281
      dxz     :     0.000377
      dyz     :     0.004794
      dx2y2   :     0.006359
      dxy     :     0.004182
      f0      :     0.000168  f :     0.002267
      f+1     :     0.000222
      f-1     :     0.000397
      f+2     :     0.000356
      f-2     :     0.000370
      f+3     :     0.000336
      f-3     :     0.000419
      g0      :     0.000007  g :     0.000073
      g+1     :     0.000004
      g-1     :     0.000006
      g+2     :     0.000002
      g-2     :     0.000012
      g+3     :     0.000012
      g-3     :     0.000011
      g+4     :     0.000009
      g-4     :     0.000010

  4 O s       :     3.829697  s :     3.829697
      pz      :     1.574434  p :     4.805723
      px      :     1.727947
      py      :     1.503341
      dz2     :     0.002525  d :     0.016546
      dxz     :     0.005237
      dyz     :     0.005318
      dx2y2   :     0.001332
      dxy     :     0.002133
      f0      :     0.000223  f :     0.002463
      f+1     :     0.000109
      f-1     :     0.000675
      f+2     :     0.000413
      f-2     :     0.000491
      f+3     :     0.000282
      f-3     :     0.000270
      g0      :     0.000006  g :     0.000071
      g+1     :     0.000002
      g-1     :     0.000009
      g+2     :     0.000009
      g-2     :     0.000008
      g+3     :     0.000012
      g-3     :     0.000012
      g+4     :     0.000007
      g-4     :     0.000006

  5 O s       :     4.001777  s :     4.001777
      pz      :     1.539960  p :     4.654715
      px      :     1.475476
      py      :     1.639278
      dz2     :     0.000220  d :     0.006051
      dxz     :     0.001070
      dyz     :    -0.000629
      dx2y2   :     0.002471
      dxy     :     0.002918
      f0      :     0.000552  f :     0.004113
      f+1     :     0.000490
      f-1     :     0.000427
      f+2     :     0.000310
      f-2     :     0.000678
      f+3     :     0.000751
      f-3     :     0.000903
      g0      :     0.000020  g :     0.000158
      g+1     :     0.000021
      g-1     :     0.000014
      g+2     :     0.000013
      g-2     :     0.000029
      g+3     :     0.000003
      g-3     :     0.000011
      g+4     :     0.000024
      g-4     :     0.000023

  6 P s       :     5.158809  s :     5.158809
      pz      :     2.558606  p :     7.856958
      px      :     2.615491
      py      :     2.682861
      dz2     :     0.126416  d :     0.718368
      dxz     :     0.124421
      dyz     :     0.160094
      dx2y2   :     0.168179
      dxy     :     0.139257
      f0      :     0.015716  f :     0.164354
      f+1     :     0.019144
      f-1     :     0.034323
      f+2     :     0.028678
      f-2     :     0.025012
      f+3     :     0.027653
      f-3     :     0.013828
      g0      :     0.003084  g :     0.026078
      g+1     :     0.001981
      g-1     :     0.002911
      g+2     :     0.002710
      g-2     :     0.003385
      g+3     :     0.003152
      g-3     :     0.003422
      g+4     :     0.003057
      g-4     :     0.002375

  7 H s       :     0.974231  s :     0.974231
      pz      :     0.020485  p :     0.060530
      px      :     0.025797
      py      :     0.014248
      dz2     :     0.000522  d :     0.003059
      dxz     :     0.000648
      dyz     :     0.000484
      dx2y2   :     0.000684
      dxy     :     0.000721
      f0      :     0.000003  f :     0.000205
      f+1     :     0.000041
      f-1     :     0.000014
      f+2     :     0.000045
      f-2     :     0.000035
      f+3     :     0.000041
      f-3     :     0.000027

  8 H s       :     0.708528  s :     0.708528
      pz      :     0.014146  p :     0.053149
      px      :     0.020925
      py      :     0.018078
      dz2     :     0.000779  d :     0.003652
      dxz     :     0.000752
      dyz     :     0.000664
      dx2y2   :     0.000827
      dxy     :     0.000630
      f0      :     0.000005  f :     0.000221
      f+1     :     0.000026
      f-1     :     0.000058
      f+2     :     0.000050
      f-2     :     0.000032
      f+3     :     0.000026
      f-3     :     0.000024

  9 H s       :     0.619401  s :     0.619401
      pz      :     0.012332  p :     0.032740
      px      :    -0.001853
      py      :     0.022261
      dz2     :     0.000845  d :     0.003695
      dxz     :     0.000828
      dyz     :     0.000572
      dx2y2   :     0.000631
      dxy     :     0.000819
      f0      :     0.000008  f :     0.000226
      f+1     :     0.000023
      f-1     :     0.000064
      f+2     :     0.000042
      f-2     :     0.000040
      f+3     :     0.000031
      f-3     :     0.000017

 10 H s       :     0.987267  s :     0.987267
      pz      :     0.048394  p :     0.068668
      px      :     0.010138
      py      :     0.010135
      dz2     :     0.000694  d :     0.003092
      dxz     :     0.000967
      dyz     :     0.001004
      dx2y2   :     0.000106
      dxy     :     0.000322
      f0      :     0.000034  f :     0.000205
      f+1     :     0.000053
      f-1     :     0.000068
      f+2     :     0.000016
      f-2     :     0.000032
      f+3     :     0.000001
      f-3     :     0.000002

 11 H s       :     0.604191  s :     0.604191
      pz      :     0.009488  p :     0.021131
      px      :    -0.004611
      py      :     0.016253
      dz2     :     0.000971  d :     0.003607
      dxz     :     0.000593
      dyz     :     0.000339
      dx2y2   :     0.000912
      dxy     :     0.000791
      f0      :     0.000012  f :     0.000221
      f+1     :     0.000072
      f-1     :     0.000031
      f+2     :     0.000014
      f-2     :     0.000018
      f+3     :     0.000052
      f-3     :     0.000022

 12 H s       :     0.760787  s :     0.760787
      pz      :     0.020563  p :     0.053019
      px      :     0.010414
      py      :     0.022041
      dz2     :     0.001014  d :     0.003645
      dxz     :     0.000233
      dyz     :     0.000722
      dx2y2   :     0.000458
      dxy     :     0.001218
      f0      :     0.000012  f :     0.000223
      f+1     :     0.000008
      f-1     :     0.000097
      f+2     :     0.000015
      f-2     :     0.000017
      f+3     :     0.000052
      f-3     :     0.000021

 13 C s       :     3.397805  s :     3.397805
      pz      :     1.000817  p :     3.307646
      px      :     1.172934
      py      :     1.133895
      dz2     :     0.013719  d :     0.074007
      dxz     :     0.006425
      dyz     :     0.013927
      dx2y2   :     0.005273
      dxy     :     0.034662
      f0      :     0.001906  f :     0.007529
      f+1     :     0.000737
      f-1     :     0.002119
      f+2     :     0.000474
      f-2     :     0.000926
      f+3     :     0.000235
      f-3     :     0.001131
      g0      :     0.000110  g :     0.000608
      g+1     :     0.000046
      g-1     :     0.000134
      g+2     :     0.000110
      g-2     :     0.000083
      g+3     :     0.000019
      g-3     :     0.000037
      g+4     :     0.000040
      g-4     :     0.000030

 14 C s       :     3.390109  s :     3.390109
      pz      :     0.595438  p :     2.382760
      px      :     0.950316
      py      :     0.837006
      dz2     :    -0.022946  d :     0.052666
      dxz     :     0.022532
      dyz     :     0.020337
      dx2y2   :    -0.004179
      dxy     :     0.036923
      f0      :     0.003423  f :     0.012450
      f+1     :     0.000763
      f-1     :     0.003001
      f+2     :     0.001159
      f-2     :     0.002213
      f+3     :     0.000630
      f-3     :     0.001262
      g0      :     0.000143  g :     0.000913
      g+1     :     0.000042
      g-1     :     0.000212
      g+2     :     0.000163
      g-2     :     0.000142
      g+3     :     0.000059
      g-3     :     0.000058
      g+4     :     0.000069
      g-4     :     0.000025

 15 H s       :     0.960602  s :     0.960602
      pz      :    -0.009706  p :    -0.007274
      px      :    -0.001138
      py      :     0.003570
      dz2     :     0.000317  d :     0.004406
      dxz     :     0.000818
      dyz     :     0.001051
      dx2y2   :     0.001725
      dxy     :     0.000495
      f0      :     0.000032  f :     0.000250
      f+1     :     0.000018
      f-1     :     0.000018
      f+2     :     0.000007
      f-2     :     0.000056
      f+3     :     0.000091
      f-3     :     0.000028

 16 H s       :     0.853312  s :     0.853312
      pz      :     0.068701  p :     0.204254
      px      :     0.103884
      py      :     0.031668
      dz2     :     0.000239  d :     0.004137
      dxz     :     0.001092
      dyz     :     0.000824
      dx2y2   :     0.001318
      dxy     :     0.000665
      f0      :     0.000039  f :     0.000245
      f+1     :     0.000012
      f-1     :     0.000015
      f+2     :     0.000002
      f-2     :     0.000058
      f+3     :     0.000104
      f-3     :     0.000015

 17 C s       :     3.347003  s :     3.347003
      pz      :     0.779178  p :     2.439894
      px      :     0.842252
      py      :     0.818464
      dz2     :     0.021107  d :     0.183477
      dxz     :     0.015205
      dyz     :     0.042564
      dx2y2   :     0.047044
      dxy     :     0.057557
      f0      :     0.002128  f :     0.012308
      f+1     :     0.000677
      f-1     :     0.002595
      f+2     :     0.000746
      f-2     :     0.002427
      f+3     :     0.002006
      f-3     :     0.001728
      g0      :     0.000077  g :     0.000909
      g+1     :     0.000036
      g-1     :     0.000169
      g+2     :     0.000148
      g-2     :     0.000120
      g+3     :     0.000064
      g-3     :     0.000070
      g+4     :     0.000115
      g-4     :     0.000109

 18 H s       :     0.920389  s :     0.920389
      pz      :     0.024486  p :     0.050121
      px      :     0.003251
      py      :     0.022384
      dz2     :     0.001438  d :     0.004172
      dxz     :     0.000983
      dyz     :     0.000775
      dx2y2   :     0.000294
      dxy     :     0.000681
      f0      :     0.000091  f :     0.000243
      f+1     :     0.000029
      f-1     :     0.000023
      f+2     :     0.000021
      f-2     :     0.000064
      f+3     :     0.000013
      f-3     :     0.000002

 19 H s       :     0.946482  s :     0.946482
      pz      :    -0.007417  p :     0.001548
      px      :     0.003031
      py      :     0.005934
      dz2     :     0.000195  d :     0.004312
      dxz     :     0.001164
      dyz     :     0.000659
      dx2y2   :     0.001436
      dxy     :     0.000858
      f0      :     0.000040  f :     0.000249
      f+1     :     0.000012
      f-1     :     0.000005
      f+2     :     0.000010
      f-2     :     0.000067
      f+3     :     0.000097
      f-3     :     0.000018

 20 C s       :     3.388463  s :     3.388463
      pz      :     1.022004  p :     2.436122
      px      :     0.672289
      py      :     0.741828
      dz2     :     0.021396  d :     0.115428
      dxz     :     0.033361
      dyz     :     0.027687
      dx2y2   :     0.033005
      dxy     :    -0.000022
      f0      :     0.001843  f :     0.015396
      f+1     :     0.001330
      f-1     :     0.002263
      f+2     :     0.000465
      f-2     :     0.002503
      f+3     :     0.004173
      f-3     :     0.002820
      g0      :     0.000092  g :     0.001233
      g+1     :     0.000118
      g-1     :     0.000088
      g+2     :     0.000127
      g-2     :     0.000136
      g+3     :     0.000044
      g-3     :     0.000135
      g+4     :     0.000238
      g-4     :     0.000255

 21 H s       :     0.869799  s :     0.869799
      pz      :     0.016377  p :     0.007032
      px      :     0.001983
      py      :    -0.011328
      dz2     :     0.001291  d :     0.004077
      dxz     :     0.000647
      dyz     :     0.000537
      dx2y2   :     0.000556
      dxy     :     0.001047
      f0      :     0.000076  f :     0.000226
      f+1     :     0.000008
      f-1     :     0.000023
      f+2     :     0.000028
      f-2     :     0.000045
      f+3     :     0.000024
      f-3     :     0.000022

 22 H s       :     0.888192  s :     0.888192
      pz      :     0.006980  p :     0.006343
      px      :     0.003256
      py      :    -0.003892
      dz2     :     0.001122  d :     0.004061
      dxz     :     0.000977
      dyz     :     0.000864
      dx2y2   :     0.000327
      dxy     :     0.000772
      f0      :     0.000086  f :     0.000226
      f+1     :     0.000020
      f-1     :     0.000020
      f+2     :     0.000027
      f-2     :     0.000051
      f+3     :     0.000014
      f-3     :     0.000007

 23 N s       :     3.548373  s :     3.548373
      pz      :     1.163165  p :     3.518449
      px      :     1.169890
      py      :     1.185393
      dz2     :     0.008938  d :     0.067145
      dxz     :     0.004781
      dyz     :     0.017383
      dx2y2   :     0.007468
      dxy     :     0.028575
      f0      :     0.000402  f :     0.004903
      f+1     :     0.000418
      f-1     :     0.000949
      f+2     :     0.000148
      f-2     :     0.000715
      f+3     :     0.001145
      f-3     :     0.001127
      g0      :     0.000026  g :     0.000297
      g+1     :     0.000021
      g-1     :     0.000031
      g+2     :     0.000037
      g-2     :     0.000035
      g+3     :     0.000012
      g-3     :     0.000027
      g+4     :     0.000055
      g-4     :     0.000052

 24 H s       :     0.668672  s :     0.668672
      pz      :    -0.021752  p :    -0.008823
      px      :     0.009169
      py      :     0.003761
      dz2     :     0.002393  d :     0.007510
      dxz     :     0.002080
      dyz     :     0.001302
      dx2y2   :     0.000626
      dxy     :     0.001107
      f0      :     0.000205  f :     0.000646
      f+1     :     0.000095
      f-1     :     0.000093
      f+2     :     0.000085
      f-2     :     0.000127
      f+3     :     0.000026
      f-3     :     0.000015

 25 H s       :     0.745596  s :     0.745596
      pz      :     0.026529  p :     0.049659
      px      :     0.018616
      py      :     0.004515
      dz2     :     0.003207  d :     0.010304
      dxz     :     0.001786
      dyz     :     0.002516
      dx2y2   :     0.001301
      dxy     :     0.001493
      f0      :     0.000136  f :     0.000736
      f+1     :     0.000061
      f-1     :     0.000157
      f+2     :     0.000136
      f-2     :     0.000151
      f+3     :     0.000051
      f-3     :     0.000044

 26 H s       :     0.686858  s :     0.686858
      pz      :     0.009119  p :     0.052737
      px      :     0.018454
      py      :     0.025163
      dz2     :     0.000284  d :     0.007456
      dxz     :     0.001430
      dyz     :     0.001549
      dx2y2   :     0.003125
      dxy     :     0.001068
      f0      :     0.000088  f :     0.000642
      f+1     :     0.000037
      f-1     :     0.000021
      f+2     :     0.000004
      f-2     :     0.000164
      f+3     :     0.000187
      f-3     :     0.000141

 27 H s       :     0.852877  s :     0.852877
      pz      :     0.010246  p :     0.051392
      px      :     0.022262
      py      :     0.018884
      dz2     :     0.000270  d :     0.003910
      dxz     :     0.000754
      dyz     :     0.000928
      dx2y2   :     0.001543
      dxy     :     0.000415
      f0      :     0.000036  f :     0.000252
[...]
 23 N      7.1392     7.0000    -0.1392     3.4133     3.4133    -0.0000
 24 H      0.6680     1.0000     0.3320     0.6923     0.6923     0.0000
 25 H      0.8063     1.0000     0.1937     1.0433     1.0433    -0.0000
 26 H      0.7477     1.0000     0.2523     0.9708     0.9708     0.0000
 27 H      0.9084     1.0000     0.0916     1.2120     1.2120    -0.0000
 28 H      0.7233     1.0000     0.2767     0.9210     0.9210    -0.0000
 29 H      0.8429     1.0000     0.1571     1.0160     1.0160    -0.0000
 30 C      6.7753     6.0000    -0.7753     3.8129     3.8129    -0.0000
 31 N      7.7546     7.0000    -0.7546     2.3891     2.3891    -0.0000
 32 N      7.2287     7.0000    -0.2287     3.4452     3.4452    -0.0000
 33 H      0.6169     1.0000     0.3831     0.8353     0.8353     0.0000
 34 C      5.6549     6.0000     0.3451     3.3449     3.3449    -0.0000
 35 C      5.5486     6.0000     0.4514     3.8896     3.8896     0.0000
 36 H      1.3295     1.0000    -0.3295     1.3622     1.3622    -0.0000
 37 C      5.9114     6.0000     0.0886     3.1800     3.1800    -0.0000
 38 H      0.4939     1.0000     0.5061     0.5443     0.5443    -0.0000
 39 H      0.8339     1.0000     0.1661     1.2803     1.2803     0.0000
 40 H      0.9106     1.0000     0.0894     1.2513     1.2513    -0.0000
 41 H      0.8914     1.0000     0.1086     1.1889     1.1889    -0.0000

  Mayer bond orders larger than 0.100000
B(  0-C ,  2-O ) :   0.8129 B(  0-C ,  7-H ) :   1.2126 B(  0-C ,  8-H ) :   0.8679 
B(  0-C ,  9-H ) :   0.7886 B(  0-C , 13-C ) :  -0.3774 B(  0-C , 15-H ) :  -0.1791 
B(  0-C , 16-H ) :  -0.1060 B(  0-C , 27-H ) :  -0.1415 B(  0-C , 28-H ) :   0.8821 
B(  0-C , 29-H ) :  -0.1166 B(  1-C ,  5-O ) :   0.8063 B(  1-C , 10-H ) :   1.1909 
B(  1-C , 11-H ) :   0.7628 B(  1-C , 12-H ) :   0.9448 B(  1-C , 30-C ) :   0.1422 
B(  1-C , 34-C ) :   0.1733 B(  1-C , 39-H ) :  -1.1990 B(  1-C , 40-H ) :   0.2442 
B(  1-C , 41-H ) :   0.5667 B(  2-O ,  6-P ) :   0.9248 B(  3-O ,  6-P ) :   1.8565 
B(  4-O ,  6-P ) :   1.5655 B(  4-O , 25-H ) :   0.2252 B(  5-O ,  6-P ) :   0.9045 
B(  5-O , 39-H ) :   0.1308 B(  5-O , 40-H ) :  -0.2175 B(  6-P , 30-C ) :  -0.1349 
B(  6-P , 39-H ) :  -0.2064 B(  6-P , 40-H ) :   0.4469 B(  7-H , 13-C ) :   0.6483 
B(  7-H , 15-H ) :   0.3240 B(  7-H , 16-H ) :   0.1734 B(  7-H , 27-H ) :   0.2357 
B(  7-H , 28-H ) :  -1.5429 B(  7-H , 29-H ) :   0.2650 B(  8-H , 13-C ) :  -0.1277 
B(  8-H , 28-H ) :   0.2960 B(  9-H , 13-C ) :  -0.1334 B(  9-H , 28-H ) :   0.3379 
B( 10-H , 30-C ) :   0.8874 B( 10-H , 34-C ) :   0.5399 B( 10-H , 37-C ) :   0.1651 
B( 10-H , 38-H ) :   0.2709 B( 10-H , 39-H ) :   1.5486 B( 10-H , 40-H ) :  -2.8835 
B( 10-H , 41-H ) :  -0.5361 B( 11-H , 30-C ) :  -0.8428 B( 11-H , 34-C ) :  -0.9222 
B( 11-H , 37-C ) :  -0.2001 B( 11-H , 38-H ) :  -0.2071 B( 11-H , 39-H ) :  -0.7101 
B( 11-H , 40-H ) :   2.6703 B( 11-H , 41-H ) :   0.2223 B( 12-H , 30-C ) :  -0.1517 
B( 12-H , 34-C ) :   0.2073 B( 12-H , 39-H ) :   0.3973 B( 12-H , 40-H ) :  -0.1663 
B( 12-H , 41-H ) :  -0.2030 B( 13-C , 14-C ) :   0.7963 B( 13-C , 27-H ) :   1.0696 
B( 13-C , 28-H ) :   0.9811 B( 13-C , 29-H ) :   1.0238 B( 14-C , 15-H ) :   0.9673 
B( 14-C , 16-H ) :   1.0885 B( 14-C , 17-C ) :   0.8529 B( 17-C , 18-H ) :   1.0394 
B( 17-C , 19-H ) :   0.9029 B( 17-C , 20-C ) :   0.9162 B( 20-C , 21-H ) :   0.9535 
B( 20-C , 22-H ) :   0.9265 B( 20-C , 23-N ) :   0.8011 B( 23-N , 24-H ) :   0.8499 
B( 23-N , 25-H ) :   0.8146 B( 23-N , 26-H ) :   0.9376 B( 30-C , 34-C ) :   0.7729 
B( 30-C , 39-H ) :   1.0797 B( 30-C , 40-H ) :   1.0803 B( 30-C , 41-H ) :   1.0294 
B( 31-N , 34-C ) :   1.0354 B( 31-N , 35-C ) :   1.3189 B( 31-N , 36-H ) :   0.1999 
B( 31-N , 37-C ) :  -0.1579 B( 32-N , 33-H ) :   0.7316 B( 32-N , 34-C ) :  -0.1161 
B( 32-N , 35-C ) :   1.4204 B( 32-N , 36-H ) :   0.2809 B( 32-N , 37-C ) :   1.1144 
B( 34-C , 37-C ) :   1.6432 B( 35-C , 36-H ) :   1.2463 B( 36-H , 37-C ) :  -0.1185 
B( 37-C , 38-H ) :   0.6327 B( 39-H , 40-H ) :   0.1022 

-------
TIMINGS
-------

Total SCF time: 0 days 0 hours 10 min 42 sec 

Total time                  ....     642.028 sec
Sum of individual times     ....     643.217 sec  (100.2%)

SCF preparation             ....       1.717 sec  (  0.3%)
Fock matrix formation       ....     612.569 sec  ( 95.4%)
  Startup                   ....       0.869 sec  (  0.1% of F)
  Split-RI-J                ....      28.583 sec  (  4.7% of F)
  Chain of spheres X        ....     481.063 sec  ( 78.5% of F)
  XC integration            ....      59.690 sec  (  9.7% of F)
    XC Preparation          ....       0.000 sec  (  0.0% of XC)
    Basis function eval.    ....       5.419 sec  (  9.1% of XC)
    Density eval.           ....      21.465 sec  ( 36.0% of XC)
    XC-Functional eval.     ....       0.108 sec  (  0.2% of XC)
    XC-Potential eval.      ....      22.924 sec  ( 38.4% of XC)
  CPCM terms                ....      40.289 sec  (  6.6% of F)
Diagonalization             ....       0.000 sec  (  0.0%)
Density matrix formation    ....       2.423 sec  (  0.4%)
Total Energy calculation    ....       1.226 sec  (  0.2%)
Population analysis         ....       0.979 sec  (  0.2%)
Orbital Transformation      ....       3.206 sec  (  0.5%)
Orbital Orthonormalization  ....       0.000 sec  (  0.0%)
DIIS solution               ....      13.826 sec  (  2.2%)
SOSCF solution              ....       6.748 sec  (  1.1%)
Finished LeanSCF after 643.0 sec

Maximum memory used throughout the entire LEANSCF-calculation: 470.9 MB


           ************************************************************
           *        Program running with 10 parallel MPI-processes    *
           *              working on a common directory               *
           ************************************************************

------------------------------------------------------------------------------
                                ORCA  MP2 
------------------------------------------------------------------------------

Freezing NCore=44 chemical core electrons

-------------
RI-MP2 ENERGY
-------------
Dimension of the orbital basis            ... 1951
Dimension of the AuxC basis               ... 4412
Memory devoted to MP2                     ... 2000 MB   
Data format for matrix containers         ... DOUBLE
Compression type for matrix containers    ... UNCOMPRESSED
Scaling for aa/bb pairs                   ...   5.660e-02
Scaling for ab pairs                      ...   5.935e-01
Overall scaling of the MP2 energy         ...   1.000e+00

-----------------------
SHARK RI TRANSFORMATION
-----------------------

Number of basis functions                ...   1951
Number of aux functions                  ...   4412
Number of operators                      ...      1
Generation of IJK                        ... NO
Generation of IAK                        ... YES
Generation of ABK                        ... NO
Orbital Range Operator  0:   22-  75 to   76-1950

Aux basis identifier                     ...   AUXC
Contraction scheme used                  ... SEGMENTED
Do orthogonalization                     ... YES
All operator combinations                ... NO
Transpose (ia|K)                         ... NO
Integral generator used                  ... LIBINT
Starting integral generation + trafo... 
Half trafo (segmented) done. Total time = 49.6 sec. integrals= 11.2 sec trafo= 19.7 sec
Integral generation and half transformation done ( 49.6 sec)

Reading or making V^(-1/2)          ... done (  0.2 sec)
Sorting IAK integrals               ... done ( 23.7 sec)

SHARK RI integral transformation done. Total time = 73.6 sec.

Opening buffers                              ... done

Starting loop over batches of integrals:

Operator 0  - window                       ... ( 22- 75)x( 76-1950)
Operator 0  - Memory available             ...  2000 MB
Operator 0  - Memory needed per MO         ...  63.1 MB
Operator 0  - Number of orbitals per batch ... 6
Operator 0  - Number of batches            ... 1

OPERATOR  0   PASS   0:  MOs    22 ...   27 +   28 ...   33 +   34 ...   39 +   40 ...   45
                            +   46 ...   51 +   52 ...   57 +   58 ...   63 +   64 ...   69
                            +   70 ...   75
  Reading integrals       ... ok
  Internal MO  24
  Internal MO  27
Time spent in pair loops =   452.099 sec
Deleting buffers (Ka|jb) ...done

-----------------------------------------------
 RI-MP2 CORRELATION ENERGY:     -1.921533567 Eh
-----------------------------------------------


-------
TIMINGS
-------

Total time                :  535.185 sec
Integral trafo            :   73.645 sec ( 13.8%)
I/O of integrals          :    0.257 sec (  0.0%)
K(i,j) operators          :   10.132 sec (  1.9%)
T(i,j) pair energies      :    0.907 sec (  0.2%)
V**(-1/2)                 :    9.441 sec (  1.8%)


---------------------------------------
MP2 TOTAL ENERGY:    -1200.880745848 Eh
---------------------------------------

Maximum memory used throughout the entire MP2-calculation: 850.0 MB


-------------------------------------------------------------------------------
                          DFT DISPERSION CORRECTION                            
                                                                               
                                DFTD4 V3.4.0                                   
-------------------------------------------------------------------------------
The REV-DSD-PBEP86-2021 functional is recognized
A user input s6-coefficient scaling factor has been recognized
A user input a1-coefficient scaling factor has been recognized
A user input s8-coefficient scaling factor has been recognized
A user input a2-coefficient scaling factor has been recognized
A user input s9-coefficient scaling factor has been recognized
Active option DFTDOPT                   ...         5   

-------------------------   ----------------
Dispersion correction           -0.027183563
-------------------------   ----------------


-------------------------   --------------------
FINAL SINGLE POINT ENERGY     -1200.907929411081
-------------------------   --------------------



           ************************************************************
           *        Program running with 10 parallel MPI-processes    *
           *              working on a common directory               *
           ************************************************************

------------------------------------------------------------------------------
                              ORCA PROPERTY CALCULATIONS
------------------------------------------------------------------------------

GBWName                                 ... kh-pg_cplx.gbw
Number of atoms                         ...     42
Number of basis functions               ...   1951
Max core memory                         ...   2000 MB

Electric properties:
Dipole moment                           ... YES
Quadrupole moment                       ...  NO
Static polarizability (Dipole/Dipole)   ...  NO
Static polarizability (Dipole/Quad.)    ...  NO
Static polarizability (Quad./Quad.)     ...  NO
Static polarizability (Velocity)        ...  NO

Atomic electric properties:
Dipole moment                           ...  NO
Quadrupole moment                       ...  NO
Static polarizability                   ...  NO

Choice of electric origin               ... Center of mass
Position of electric origin             ...     2.492853    -3.842153    -4.007725

General magnetic properties:
Magnetizability                         ...  NO

EPR properties:
g-Tensor (aka g-matrix)                 ...  NO
Zero-Field splitting spin-orbit         ...  NO
Zero-field splitting spin-spin          ...  NO
Hyperfine couplings                     ...  NO (   0 nuclei)
Quadrupole couplings                    ...  NO (   0 nuclei)
Contact density                         ...  NO (   0 nuclei)

NMR properties:
Chemical shifts                         ...  NO (   0 nuclei)
Spin-rotation constants                 ...  NO (   0 nuclei)
Spin-spin couplings                     ...  NO (   0 nuclei,    0 pairs)

Choice of magnetic origin               ... GIAO
Position of magnetic origin             ...     0.000000     0.000000     0.000000

Properties with geometric perturbations:
SCF Hessian                             ...  NO
IR spectrum                             ...  NO
VCD spectrum                            ...  NO
X-ray spectroscopy properties:
SCF XES/XAS/RIXS spectra                ...  NO


-------------
DIPOLE MOMENT
-------------

Method             : SCF
Type of density    : Electron Density
Multiplicity       :   1
Irrep              :   0
Energy             : -1198.9592122804504015 Eh
Relativity type    : 
Basis              : AO
                                X                 Y                 Z
Electronic contribution:    -10.342474532       9.076413950     -16.471822092
Nuclear contribution   :     11.435759380     -12.600130725      18.024388573
                        -----------------------------------------
Total Dipole Moment    :      1.093284849      -3.523716775       1.552566481
                        -----------------------------------------
Magnitude (a.u.)       :      4.002788321
Magnitude (Debye)      :     10.174279350



--------------------
Rotational spectrum 
--------------------
 
Rotational constants in cm-1:             0.012499             0.008428             0.005849 
Rotational constants in MHz :           374.698144           252.671488           175.335101 

Dipole components along the rotational axes: 
x,y,z [a.u.] :     0.509372    -3.774175     1.232258 
x,y,z [Debye]:     1.294720    -9.593190     3.132150 

 

Dipole moment calculation done in   0.2 sec 

Maximum memory used throughout the entire PROP-calculation: 308.5 MB

--------------------------------
SUGGESTED CITATIONS FOR THIS RUN
--------------------------------

Below you find a list of papers that are relevant to this ORCA run
We neither can nor want to force you to cite these papers, but we appreciate if you do
You receive ORCA, which is the product of decades of hard work by many enthusiastic individuals, for free
The only thing we kindly ask in return is that you cite our papers,
We deeply appreciate it, if you show your appreciation for ORCA by not just citing the generic ORCA reference.

Please note that relegating all ORCA citations to the supporting information does *not* help us.
SI sections are not indexed - citations you put there will not count into any citation statistics
But we need these citations in order to attract the funding resources that allow us to do what we are doing

Therefore, if you are a happy ORCA user, please consider citing a few of the papers listed below in the main body of your paper

In addition to the list printed below, the program has created the file kh-pg_cplx.bibtex that contains the list in bibtex format
You can import this file easily into all common literature databanks and citation aid programs


List of essential papers. We consider these as the minimum necessary citations

  1. Neese,F.
     Software update: the ORCA program system, version 5.0
     WIRES Comput. Molec. Sci., 2022 12(1)e1606
     doi.org/10.1002/wcms.1606

List of papers to cite with high priority. The work reported in these papers was absolutely
necessary for this run to complete.
Our perspective: the developers of density functionals and basis sets usually get cited in chemistry papers
Good! But without the algorithms to do something with them, the functionals or basis sets would not do anything.
Hence, in our opinion, the algorithm design and method developments papers are equally worthy of getting cited

  1. Neese,F.
     An improvement of the resolution of the identity approximation for the formation of the Coulomb matrix
     J. Comp. Chem., 2003 24(14)1740-1747
     doi.org/10.1002/jcc.10318
  2. Neese,F.; Wennmohs,F.; Hansen,A.; Becker,U.
     Efficient, approximate and parallel Hartree-Fock and hybrid DFT calculations. A 'chain-of-spheres' algorithm for the Hartree-Fock exchange
     Chem. Phys., 2009 356(1-3)98-109
     doi.org/10.1016/j.chemphys.2008.10.036
  3. Kossmann,S.; Neese,F.
     Efficient Structure Optimization with Second-Order Many-Body Perturbation Theory: The RIJCOSX-MP2 Method
     J. Theo. Comp. Chem., 2010 6 2325-2338
     doi.org/10.1021/ct100199k
  4. Garcia-Rates,M.; Neese,F.
     Effect of the Solute Cavity on the Solvation Energy and its Derivatives within the Framework of the Gaussian Charge Scheme
     J. Comput. Chem., 2020 41 922-939
     doi.org/10.1002/jcc.26139
  5. Helmich-Paris,B.; de Souza,B.; Neese,F.; Izsák,R.
     An improved chain of spheres for exchange algorithm
     J. Chem. Phys., 2021 155 104109
     doi.org/doi: 10.1063/5.0058766.
  6. Neese,F.
     The SHARK Integral Generation and Digestion System
     J. Comp. Chem., 2022  1-16
     doi.org/10.1002/jcc.26942
  7. Caldeweyher,E.; Bannwarth,C.; Grimme,S.
     Extension of the D3 dispersion coefficient model
     J. Chem. Phys., 2017 147 034112
     doi.org/10.1063/1.4993215
  8. Caldeweyher,E.; Ehlert,S.; Hansen,A.; Neugebauer,H.; Spicher,S.; Bannwarth,C.; Grimme,S.
     A generally applicable atomic-charge dependent London dispersion correction
     J. Chem. Phys., 2019 150 154122
     doi.org/10.1063/1.5090222
  9. Caldeweyher,E.; Mewes,J.; Ehlert,S.; Grimme,S.
     Extension and evaluation of the D4 London-dispersion model for periodic systems
     Phys. Chem. Chem. Phys., 2020 22(16)8499-8512
     doi.org/10.1039/D0CP00502A
 10. Wittmann,L.; Gordiy,I.; Friede,M.; Helmich-Paris,B.; Grimme,S.; Hansen,A.; Bursch,M.
     Extension of the D3 and D4 London Dispersion Corrections to the full Actinides Series
     Phys. Chem. Chem. Phys., 2024 26(32)21379-21394
     doi.org/https://doi.org/10.1039/D4CP01514B 

List of suggested additional citations. These are papers that are important in the 'surrounding' of 
of this run, or papers that preceded the highly important papers. If you like your results we are grateful for a citation.

  1. Izsak,R.; Neese,F.
     An overlap fitted chain of spheres exchange method
     J. Chem. Phys., 2011 135 144105
     doi.org/10.1063/1.3646921
  2. Izsak,R.; Hansen,A.; Neese,F.
     The resolution of identity and chain of spheres approximations for the LPNO-CCSD singles Fock term
     Molec. Phys., 2012 110 2413-2417
     doi.org/10.1080/00268976.2012.687466
  3. Neese,F.
     The ORCA program system
     WIRES Comput. Molec. Sci., 2012 2(1)73-78
     doi.org/10.1002/wcms.81
  4. Izsak,R.; Neese,F.; Klopper,W.
     Robust fitting techniques in the chain of spheres approximation to the Fock exchange: The role of the complementary space
     J. Chem. Phys., 2013 139 
     doi.org/10.1063/1.4819264
  5. Neese,F.
     Software update: the ORCA program system, version 4.0
     WIRES Comput. Molec. Sci., 2018 8(1)1-6
     doi.org/10.1002/wcms.1327
  6. Neese,F.; Wennmohs,F.; Becker,U.; Riplinger,C.
     The ORCA quantum chemistry program package
     J. Chem. Phys., 2020 152 Art. No. L224108
     doi.org/10.1063/5.0004608

List of optional additional citations

  1. Neese,F.
     Approximate second-order SCF convergence for spin unrestricted wavefunctions
     Chem. Phys. Lett., 2000 325(1-3)93-98
     doi.org/10.1016/s0009-2614(00)00662-x

Timings for individual modules:

Sum of individual times          ...     1201.737 sec (=  20.029 min)
Startup calculation              ...       11.879 sec (=   0.198 min)   1.0 %
SCF iterations                   ...      651.159 sec (=  10.853 min)  54.2 %
Property calculations            ...        1.568 sec (=   0.026 min)   0.1 %
MP2 module                       ...      537.131 sec (=   8.952 min)  44.7 %
                             ****ORCA TERMINATED NORMALLY****
TOTAL RUN TIME: 0 days 0 hours 20 minutes 2 seconds 515 msec
