
                                 *****************
                                 * O   R   C   A *
                                 *****************

                                            #,                                       
                                            ###                                      
                                            ####                                     
                                            #####                                    
                                            ######                                   
                                           ########,                                 
                                     ,,################,,,,,                         
                               ,,#################################,,                 
                          ,,##########################################,,             
                       ,#########################################, ''#####,          
                    ,#############################################,,   '####,        
                  ,##################################################,,,,####,       
                ,###########''''           ''''###############################       
              ,#####''   ,,,,##########,,,,          '''####'''          '####       
            ,##' ,,,,###########################,,,                        '##       
           ' ,,###''''                  '''############,,,                           
         ,,##''                                '''############,,,,        ,,,,,,###''
      ,#''                                            '''#######################'''  
     '                                                          ''''####''''         
             ,#######,   #######,   ,#######,      ##                                
            ,#'     '#,  ##    ##  ,#'     '#,    #''#        ,####,   ,####,        
            ##       ##  ##   ,#'  ##            #'  '#       #'       #'  '#        
            ##       ##  #######   ##           ,######,      #####,   #    #        
            '#,     ,#'  ##    ##  '#,     ,#' ,#      #,     #,   #   #,  ,#        
             '#######'   ##     ##  '#######'  #'      '#     '####' # '####'        



                #########################################################
                #                        -***-                          #
                #          Department of theory and spectroscopy        #
                #                                                       #
                #                      Frank Neese                      #
                #                                                       #
                #     Directorship, Architecture, Infrastructure        #
                #                    SHARK, DRIVERS                     #
                #        Core code/Algorithms in most modules           #
                #                                                       #
                #        Max Planck Institute fuer Kohlenforschung      #
                #                Kaiser Wilhelm Platz 1                 #
                #                 D-45470 Muelheim/Ruhr                 #
                #                      Germany                          #
                #                                                       #
                #                  All rights reserved                  #
                #                        -***-                          #
                #########################################################


                         Program Version 6.0.1  -  RELEASE   -


 With contributions from (in alphabetic order):
[Max-Planck-Institut fuer Kohlenforschung]                               
  Daniel Aravena         : Magnetic Suceptibility                        
  Michael Atanasov       : Ab Initio Ligand Field Theory (pilot matlab implementation)
  Alexander A. Auer      : GIAO ZORA, VPT2 properties, NMR spectrum      
  Ute Becker             : All parallelization in ORCA, NUMFREQ, NUMCALC 
  Giovanni Bistoni       : ED, misc. LED, open-shell LED, HFLD           
  Martin Brehm           : Molecular dynamics                            
  Dmytro Bykov           : pre 5.0 version of the SCF Hessian            
  Marcos Casanova-Páez   : Triplet and SCS-CIS(D). UHF-(DLPNO)-IP/EA/STEOM-CCSD. UHF-CVS-IP/STEOM-CCSD   
  Vijay G. Chilkuri      : MRCI spin determinant printing, contributions to CSF-ICE 
  Pauline Colinet        : FMM embedding                                 
  Dipayan Datta          : RHF DLPNO-CCSD density                        
  Achintya Kumar Dutta   : EOM-CC, STEOM-CC                              
  Nicolas Foglia         : Exact transition moments, OPA infrastructure, MCD improvements    
  Dmitry Ganyushin       : Spin-Orbit,Spin-Spin,Magnetic field MRCI      
  Miquel Garcia-Rates    : C-PCM and meta-GGA Hessian, CCSD/C-PCM, Gaussian charge scheme 
  Tiago L. C. Gouveia    : GS-ROHF, GS-ROCIS                             
  Yang Guo               : DLPNO-NEVPT2, F12-NEVPT2, CIM, IAO-localization        
  Andreas Hansen         : Spin unrestricted coupled pair/coupled cluster methods 
  Ingolf Harden          : AUTO-CI MPn and infrastructure                
  Benjamin Helmich-Paris : MC-RPA, TRAH-(SCF,CASSCF), AVAS, COSX integrals, SCF dyn. polar. 
  Lee Huntington         : MR-EOM, pCC                                   
  Robert Izsak           : Overlap fitted RIJCOSX, COSX-SCS-MP3, EOM     
  Riya Kayal             : Wick's Theorem for AUTO-CI, AUTO-CI UHF-CCSDT 
  Emily Kempfer          : AUTO-CI, RHF CISDT and CCSDT                  
  Christian Kollmar      : KDIIS, OOCD, Brueckner-CCSD(T), CCSD density, CASPT2, CASPT2-K, improved NEVPT2 
  Axel Koslowski         : Symmetry handling                             
  Simone Kossmann        : meta-GGA functionals, TD-DFT gradient, OOMP2, (MP2 Hessian; deprecated post 5.0) 
  Lucas Lang             : DCDCAS                                        
  Marvin Lechner         : AUTO-CI (C++ implementation), FIC-MRCC        
  Spencer Leger          : CASSCF response                               
  Dagmar Lenk            : GEPOL surface, SMD, ORCA-2-JSON               
  Dimitrios Liakos       : Extrapolation schemes; Compound Job, initial MDCI parallelization 
  Dimitrios Manganas     : Further ROCIS development; embedding schemes. LFT, Crystal Embedding 
  Dimitrios Pantazis     : SARC Basis sets                               
  Anastasios Papadopoulos: AUTO-CI, single reference methods and gradients 
  Taras Petrenko         : pre 6.0 DFT Hessian and TD-DFT gradient, (ASA, deprecated), ECA, 1-Electron XAS/XES, NRVS 
  Peter Pinski           : DLPNO-MP2, DLPNO-MP2 Gradient                 
  Christoph Reimann      : Effective Core Potentials                     
  Marius Retegan         : Local ZFS, SOC                                
  Christoph Riplinger    : Optimizer, TS searches, QM/MM, DLPNO-CCSD(T), (RO)-DLPNO pert. Triples 
  Michael Roemelt        : Original ROCIS implementation                 
  Masaaki Saitow         : Open-shell DLPNO-CCSD energy and density      
  Barbara Sandhoefer     : DKH picture change effects                    
  Kantharuban Sivalingam : CASSCF convergence/infrastructure, NEVPT2 and variants, FIC-MRCI 
  Bernardo de Souza      : ESD, SOC TD-DFT                               
  Georgi L. Stoychev     : AutoAux, RI-MP2 NMR, DLPNO-MP2 response, X2C  
  Van Anh Tran           : RI-MP2 g-tensors                              
  Willem Van den Heuvel  : Paramagnetic NMR                              
  Zikuan Wang            : NOTCH, Electric field optimization            
  Frank Wennmohs         : Technical directorship and infrastructure     
  Hang Xu                : AUTO-CI-Response properties                   
                                                                         
[FACCTs GmbH]                                                            
  Markus Bursch, Miquel Garcia-Rates, Christoph Riplinger, Bernardo de Souza, Georgi L. Stoychev 
                                                                 
  APM, Basis sets (HGBS, AHGBS, def-TZVP (Ac-Lr), def2-XVPD (La-Lu)), CI-OPT, improved COSX, DLPNO-Multilevel,           
  DOCKER, DRACO, updates on ESD, GOAT, IRC, LR-CPCM, MBIS, meta-GGA TD-DFT gradient, ML-optimized integration grids, 
  MM, NACMEs, nearIR, NEB, NEB-TS, NL-DFT gradient (VV10), 2- and 3-layer-ONIOM, interface openCOSMO-RS, QMMM,   
  Crystal-QMMM, SF, symmetry and pop. for TD-DFT, r2SCAN hybrids, SOLVATOR                                   
                                                                         
[Other institutions]                                                     
  V. Asgeirsson          : NEB                                           
  Christoph Bannwarth    : sTDA-DFT, sTD-DFT, PBEh-3c, B97-3c, D3        
  Sebastian Ehlert       : rSCAN, r2SCAN, r2SCAN-3c, D4, dhf basis sets  
  Marvin Friede          : D4 for Fr, Ra, Ac-Lr                          
  Lars Goerigk           : TD-DFT with DH, B97 family of functionals     
  Stefan Grimme          : VdW corrections, initial TS optimization, DFT functionals, gCP, sTDA/sTD-DF 
  Waldemar Hujo          : DFT-NL                                        
  H. Jonsson             : NEB                                           
  Holger Kruse           : gCP                                           
  Marcel Mueller         : wB97X-3c, vDZP basis set                      
  Hagen Neugebauer       : wr2SCAN                                       
  Tobias Risthaus        : range-separated hybrid DFT                    
  Lukas Wittmann         : regularized MP2, r2SCAN double-hybrids, wr2SCAN        
                                                                         
We gratefully acknowledge several colleagues who have allowed us to      
interface, adapt or use parts of their codes:                            
  Ed Valeev, F. Pavosevic, A. Kumar             : LibInt (2-el integral package), F12 methods 
  Garnet Chan, S. Sharma, J. Yang, R. Olivares  : DMRG                   
  Ulf Ekstrom                                   : XCFun DFT Library      
  Mihaly Kallay                                 : mrcc  (arbitrary order and MRCC methods)
  Frank Weinhold                                : gennbo (NPA and NBO analysis)           
  Simon Mueller                                 : openCOSMO-RS                            
  Christopher J. Cramer and Donald G. Truhlar   : smd solvation model                     
  S Lehtola, MJT Oliveira, MAL Marques          : LibXC Library                           
  Liviu Ungur et al                             : ANISO software                          


 Your calculation uses the libint2 library for the computation of 2-el integrals
 For citations please refer to: http://libint.valeyev.net

 Your ORCA version has been built with support for libXC version: 6.2.2
 For citations please refer to: https://libxc.gitlab.io

 This ORCA versions uses:
   CBLAS   interface :  Fast vector & matrix operations
   LAPACKE interface :  Fast linear algebra routines
   SCALAPACK package :  Parallel linear algebra routines
   Shared memory     :  Shared parallel matrices
   BLAS/LAPACK       :  OpenBLAS 0.3.27  USE64BITINT DYNAMIC_ARCH NO_AFFINITY Haswell SINGLE_THREADED
        Core in use  :  Haswell
   Copyright (c) 2011-2014, The OpenBLAS Project


NOTE: MaxCore=2000 MB was set to SCF,MP2,MDCI,CIPSI,MRCI and CIS
      => If you want to overwrite this, your respective input block should be placed after the MaxCore statement
Your calculation utilizes the atom-pairwise dispersion correction
based on EEQ partial charges (D4)


================================================================================

----- Orbital basis set information -----
Your calculation utilizes the basis: def2-QZVPPD
   F. Weigend and R. Ahlrichs, Phys. Chem. Chem. Phys. 7, 3297 (2005).
   D. Rappoport and F. Furche, J. Chem. Phys. 133, 134105 (2010)
   D. Rappoport, J. Chem. Phys. 155, 124102 (2021).

----- AuxJ basis set information -----
Your calculation utilizes the auxiliary basis: def2/J
   F. Weigend, Phys. Chem. Chem. Phys. 8, 1057 (2006).

----- AuxC basis set information -----
Your calculation utilizes the auxiliary basis: def2-QZVPPD/C
   A. Hellweg, C. Hattig, S. Hofener and W. Klopper, Theor. Chem. Acc. 117, 587 (2007).
  A. Hellweg and D. Rappoport; Phys. Chem. Chem. Phys. 17, 1010 (2015).

================================================================================
                                        WARNINGS
                       Please study these warnings very carefully!
================================================================================


WARNING: No MP2 level density has been requested!
         To calculate MP2 level properties use
         %mp2 Density relaxed end
         or
         %mp2 Density unrelaxed end
         Otherwise for double-hybrid DFT only the energy is correct!

WARNING: The frozen-core approximation is turned on by default for 
         the MP2 part of double-hybrid DFT.

================================================================================
                                       INPUT FILE
================================================================================
NAME = pg1_frag.inp
|  1> # ------------------------------------
|  2> # KH_POPG (K2 & H3 ghosted); ion pair-pi
|  3> # ------------------------------------
|  4> ! SP revDSD-PBEP86-D4/2021 def2-QZVPPD RIJCOSX def2/J TightSCF CPCM
|  5> %basis
|  6>   basis   "def2-QZVPPD"
|  7>   aux     "def2/J"           # RI-J (for SCF/RIJCOSX)
|  8>   auxC    "def2-QZVPPD/C"    # required for RI-MP2 (AuxC)
|  9> end
| 10> %pal
| 11>     nprocs 10
| 12> end
| 13> %MaxCore 2000
| 14> %cpcm 
| 15>    epsilon 3 
| 16> end
| 17> *xyz -1 1
| 18> # POPG1
| 19> C     -1.57100     -0.80200      -4.02500
| 20> C      2.50700     -3.28100      -5.75200
| 21> O     -0.59700     -1.31300      -4.90300
| 22> O      1.62100     -0.94100      -3.63200
| 23> O      0.35900     -3.18800      -3.43900
| 24> O      1.37000     -2.45300      -5.70000
| 25> P      0.73700     -1.98500      -4.28600
| 26> H     -2.39900     -0.38800      -4.60100
| 27> H     -1.12900     -0.01800      -3.41000
| 28> H     -1.93900     -1.60300      -3.38400
| 29> H      2.76800     -3.47600      -6.79200
| 30> H      3.34100     -2.78400      -5.25600
| 31> H      2.29400     -4.22300      -5.24800
| 32> # Lys2 ghosted
| 33> C:     3.71500     -4.03000       0.83000
| 34> C:     3.56200     -3.38200      -0.54200
| 35> H:     4.36800     -2.65200      -0.70300
| 36> H:     2.64500     -2.76900      -0.57000
| 37> C:     3.54700     -4.35600      -1.72200
| 38> H:     3.49600     -3.77200      -2.65400
| 39> H:     4.49500     -4.91800      -1.76300
| 40> C:     2.42400     -5.38500      -1.69000
| 41> H:     2.55400     -6.11100      -0.87400
| 42> H:     2.38200     -5.94600      -2.63300
| 43> N:     1.10000     -4.74200      -1.50100
| 44> H:     1.07600     -4.22300      -0.61400
| 45> H:     0.85200     -4.05700      -2.30300
| 46> H:     0.34900     -5.43600      -1.45800
| 47> H:     2.91400     -4.75200       0.98200
| 48> H:     4.67800     -4.53800       0.88600
| 49> H:     3.66500     -3.26200       1.60200
| 50> # His3 ghosted
| 51> C:     1.03000      0.64700       2.54700
| 52> N:     0.51600     -0.95600       0.64300
| 53> N:     1.24400      0.17400      -1.10300
| 54> H:     1.49300      0.34300      -2.08200
| 55> C:     1.00100      0.26200       1.07200
| 56> C:     0.68300     -0.96800      -0.66600
| 57> H:     0.42300     -1.77800      -1.34700
| 58> C:     1.45600      0.97500      -0.01600
| 59> H:     1.90400      1.96100      -0.10300
| 60> H:     1.45100      1.64600       2.65400
| 61> H:     0.01600      0.63500       2.94500
| 62> H:     1.64400     -0.06700       3.09600
| 63> *
| 64> 
| 65> 
| 66> 
| 67>                          ****END OF INPUT****
================================================================================

                       ****************************
                       * Single Point Calculation *
                       ****************************

---------------------------------
CARTESIAN COORDINATES (ANGSTROEM)
---------------------------------
  C     -1.571000   -0.802000   -4.025000
  C      2.507000   -3.281000   -5.752000
  O     -0.597000   -1.313000   -4.903000
  O      1.621000   -0.941000   -3.632000
  O      0.359000   -3.188000   -3.439000
  O      1.370000   -2.453000   -5.700000
  P      0.737000   -1.985000   -4.286000
  H     -2.399000   -0.388000   -4.601000
  H     -1.129000   -0.018000   -3.410000
  H     -1.939000   -1.603000   -3.384000
  H      2.768000   -3.476000   -6.792000
  H      3.341000   -2.784000   -5.256000
  H      2.294000   -4.223000   -5.248000
  C      3.715000   -4.030000    0.830000
  C      3.562000   -3.382000   -0.542000
  H      4.368000   -2.652000   -0.703000
  H      2.645000   -2.769000   -0.570000
  C      3.547000   -4.356000   -1.722000
  H      3.496000   -3.772000   -2.654000
  H      4.495000   -4.918000   -1.763000
  C      2.424000   -5.385000   -1.690000
  H      2.554000   -6.111000   -0.874000
  H      2.382000   -5.946000   -2.633000
  N      1.100000   -4.742000   -1.501000
  H      1.076000   -4.223000   -0.614000
  H      0.852000   -4.057000   -2.303000
  H      0.349000   -5.436000   -1.458000
  H      2.914000   -4.752000    0.982000
  H      4.678000   -4.538000    0.886000
  H      3.665000   -3.262000    1.602000
  C      1.030000    0.647000    2.547000
  N      0.516000   -0.956000    0.643000
  N      1.244000    0.174000   -1.103000
  H      1.493000    0.343000   -2.082000
  C      1.001000    0.262000    1.072000
  C      0.683000   -0.968000   -0.666000
  H      0.423000   -1.778000   -1.347000
  C      1.456000    0.975000   -0.016000
  H      1.904000    1.961000   -0.103000
  H      1.451000    1.646000    2.654000
  H      0.016000    0.635000    2.945000
  H      1.644000   -0.067000    3.096000

----------------------------
CARTESIAN COORDINATES (A.U.)
----------------------------
  NO LB      ZA    FRAG     MASS         X           Y           Z
   0 C     6.0000    0    12.011   -2.968760   -1.515560   -7.606148
   1 C     6.0000    0    12.011    4.737543   -6.200191  -10.869705
   2 O     8.0000    0    15.999   -1.128167   -2.481210   -9.265327
   3 O     8.0000    0    15.999    3.063246   -1.778232   -6.863485
   4 O     8.0000    0    15.999    0.678412   -6.024447   -6.498768
   5 O     8.0000    0    15.999    2.588925   -4.635498  -10.771439
   6 P    15.0000    0    30.974    1.392728   -3.751106   -8.099366
   7 H     1.0000    0     1.008   -4.533453   -0.733214   -8.694630
   8 H     1.0000    0     1.008   -2.133501   -0.034015   -6.443966
   9 H     1.0000    0     1.008   -3.664179   -3.029231   -6.394833
  10 H     1.0000    0     1.008    5.230762   -6.568688  -12.835020
  11 H     1.0000    0     1.008    6.313575   -5.260998   -9.932401
  12 H     1.0000    0     1.008    4.335032   -7.980313   -9.917283
  13 C     0.0000    0     0.000    7.020333   -7.615596    1.568473
  14 C     0.0000    0     0.000    6.731204   -6.391054   -1.024232
  15 H     0.0000    0     0.000    8.254324   -5.011554   -1.328477
  16 H     0.0000    0     0.000    4.998326   -5.232652   -1.077144
  17 C     0.0000    0     0.000    6.702859   -8.231647   -3.254108
  18 H     0.0000    0     0.000    6.606483   -7.128047   -5.015333
  19 H     0.0000    0     0.000    8.494319   -9.293673   -3.331587
  20 C     0.0000    0     0.000    4.580696  -10.176175   -3.193637
  21 H     0.0000    0     0.000    4.826361  -11.548116   -1.651621
  22 H     0.0000    0     0.000    4.501328  -11.236312   -4.975649
  23 N     0.0000    0     0.000    2.078699   -8.961081   -2.836479
  24 H     0.0000    0     0.000    2.033345   -7.980313   -1.160292
  25 H     0.0000    0     0.000    1.610047   -7.666619   -4.352039
  26 H     0.0000    0     0.000    0.659514  -10.272551   -2.755221
  27 H     0.0000    0     0.000    5.506662   -8.979979    1.855711
  28 H     0.0000    0     0.000    8.840139   -8.575577    1.674297
  29 H     0.0000    0     0.000    6.925846   -6.164287    3.027341
  30 C     0.0000    0     0.000    1.946418    1.222653    4.813132
  31 N     0.0000    0     0.000    0.975099   -1.806578    1.215094
  32 N     0.0000    0     0.000    2.350819    0.328812   -2.084368
  33 H     0.0000    0     0.000    2.821361    0.648176   -3.934410
  34 C     0.0000    0     0.000    1.891616    0.495108    2.025786
  35 C     0.0000    0     0.000    1.290683   -1.829255   -1.258558
  36 H     0.0000    0     0.000    0.799354   -3.359933   -2.545461
  37 C     0.0000    0     0.000    2.751441    1.842483   -0.030236
  38 H     0.0000    0     0.000    3.598039    3.705753   -0.194642
  39 H     0.0000    0     0.000    2.741993    3.110489    5.015333
  40 H     0.0000    0     0.000    0.030236    1.199976    5.565243
  41 H     0.0000    0     0.000    3.106710   -0.126612    5.850592

--------------------------------
INTERNAL COORDINATES (ANGSTROEM)
--------------------------------
 C      0   0   0     0.000000000000     0.00000000     0.00000000
 C      1   0   0     5.075239304703     0.00000000     0.00000000
 O      1   2   0     1.407366689957    18.96374866     0.00000000
 O      3   1   2     2.583282601652   103.59048648   316.70599790
 O      3   1   2     2.563758373950    99.63463830    18.25919790
 O      2   1   3     1.407500266430    18.37710513     6.56203809
 P      4   3   1     1.516280976600    35.71510685   122.68165096
 H      1   2   6     1.090300875905   128.01776603    20.37517395
 H      1   2   6     1.090066511732   102.56095676   252.99521656
 H      1   2   6     1.089911005541    96.45665187   141.32587409
 H      2   1   3     1.089837602581   127.19600056   349.23588494
 H      2   1   3     1.090220619875   103.72068458   117.18714192
 H      2   1   3     1.089380098955    96.19043268   228.99967919
 C      5   3   1     5.495094266707   141.57483152   282.96568671
 C     14   5   3     1.525023606375    34.38089426   307.85119427
 H     15  14   5     1.099298412625   109.89936940   165.11519190
 H     15  14   5     1.103377541914   110.01564155    51.55101503
 C     15  14   5     1.530131040140   115.10649683   287.92548151
 H     18  15  14     1.101036330009   108.39733489   183.48553614
 H     18  15  14     1.102827729067   110.15902640   299.26571632
 C     18  15  14     1.523480882716   114.89576545    60.01042940
 H     21  18  15     1.099923633713   111.97946095   291.67557640
 H     21  18  15     1.098059196947   110.80771012   171.37384543
 N     21  18  15     1.483962937543   111.57277243    51.93639515
 H     24  21  18     1.027962061557   110.45627768   299.88810703
 H     24  21  18     1.083481887251   112.57456291    61.10013684
 H     24  21  18     1.023467635053   111.48261983   181.31702332
 H     14   5   3     1.089031220856    76.16173195   142.33325696
 H     14   5   3     1.090215116388   130.59933429   246.30066763
 H     14   5   3     1.090095408668   114.46979456    36.88347884
 C     30  14   5     4.807965370092   137.48750208     5.78610779
 N     31  30  14     2.541460406931    56.68671457     6.73560506
 N     32  31  30     2.203497220330   101.73315103   256.44198380
 H     33  32  31     1.024208474872   157.27071974   172.77572570
 C     32  31  30     1.379416543325    30.56695686   254.52027642
 C     32  31  30     1.319664351265   136.32455402   257.43758439
 H     36  32  31     1.089706841311   126.61635166   177.83824242
 C     33  32  31     1.366789669262    73.83578165   358.86568849
 H     38  33  32     1.086493902422   122.14836040   179.96309637
 H     31  30  14     1.089353477986   123.57953903   238.96832747
 H     31  30  14     1.089377804070   124.95829208    76.56346087
 H     31  30  14     1.090042659716    42.07554730   156.89699258

---------------------------
INTERNAL COORDINATES (A.U.)
---------------------------
 C      0   0   0     0.000000000000     0.00000000     0.00000000
 C      1   0   0     9.590812350001     0.00000000     0.00000000
 O      1   2   0     2.659537614022    18.96374866     0.00000000
 O      3   1   2     4.881696643647   103.59048648   316.70599790
 O      3   1   2     4.844801200313    99.63463830    18.25919790
 O      2   1   3     2.659790036974    18.37710513     6.56203809
 P      4   3   1     2.865355787849    35.71510685   122.68165096
 H      1   2   6     2.060370059036   128.01776603    20.37517395
 H      1   2   6     2.059927174933   102.56095676   252.99521656
 H      1   2   6     2.059633310820    96.45665187   141.32587409
 H      2   1   3     2.059494599328   127.19600056   349.23588494
 H      2   1   3     2.060218397117   103.72068458   117.18714192
 H      2   1   3     2.058630042770    96.19043268   228.99967919
 C      5   3   1    10.384223244158   141.57483152   282.96568671
 C     14   5   3     2.881876963813    34.38089426   307.85119427
 H     15  14   5     2.077372939316   109.89936940   165.11519190
 H     15  14   5     2.085081376537   110.01564155    51.55101503
 C     15  14   5     2.891528614877   115.10649683   287.92548151
 H     18  15  14     2.080657127215   108.39733489   183.48553614
 H     18  15  14     2.084042380832   110.15902640   299.26571632
 C     18  15  14     2.878961638597   114.89576545    60.01042940
 H     21  18  15     2.078554435945   111.97946095   291.67557640
 H     21  18  15     2.075031161063   110.80771012   171.37384543
 N     21  18  15     2.804283544845   111.57277243    51.93639515
 H     24  21  18     1.942566772403   110.45627768   299.88810703
 H     24  21  18     2.047484037968   112.57456291    61.10013684
 H     24  21  18     1.934073537181   111.48261983   181.31702332
 H     14   5   3     2.057970758709    76.16173195   142.33325696
 H     14   5   3     2.060207997034   130.59933429   246.30066763
 H     14   5   3     2.059981782228   114.46979456    36.88347884
 C     30  14   5     9.085737810850   137.48750208     5.78610779
 N     31  30  14     4.802664149304    56.68671457     6.73560506
 N     32  31  30     4.164006283280   101.73315103   256.44198380
 H     33  32  31     1.935473521550   157.27071974   172.77572570
 C     32  31  30     2.606719491485    30.56695686   254.52027642
 C     32  31  30     2.493804212590   136.32455402   257.43758439
 H     36  32  31     2.059247496338   126.61635166   177.83824242
 C     33  32  31     2.582858157577    73.83578165   358.86568849
 H     38  33  32     2.053175921753   122.14836040   179.96309637
 H     31  30  14     2.058579736428   123.57953903   238.96832747
 H     31  30  14     2.058625706064   124.95829208    76.56346087
 H     31  30  14     2.059882101154    42.07554730   156.89699258

---------------------
BASIS SET INFORMATION
---------------------
There are 5 groups of distinct atoms

 Group   1 Type C   : 16s8p4d2f1g contracted to 8s4p4d2f1g pattern {82111111/5111/1111/11/1}
 Group   2 Type O   : 16s9p4d2f1g contracted to 8s5p4d2f1g pattern {82111111/51111/1111/11/1}
 Group   3 Type P   : 21s14p5d2f1g contracted to 10s6p5d2f1g pattern {10311111111/821111/11111/11/1}
 Group   4 Type H   : 7s4p2d1f contracted to 4s4p2d1f pattern {4111/1111/11/1}
 Group   5 Type N   : 16s8p4d2f1g contracted to 8s4p4d2f1g pattern {82111111/5111/1111/11/1}

Atom   0C    basis set group =>   1
Atom   1C    basis set group =>   1
Atom   2O    basis set group =>   2
Atom   3O    basis set group =>   2
Atom   4O    basis set group =>   2
Atom   5O    basis set group =>   2
Atom   6P    basis set group =>   3
Atom   7H    basis set group =>   4
Atom   8H    basis set group =>   4
Atom   9H    basis set group =>   4
Atom  10H    basis set group =>   4
Atom  11H    basis set group =>   4
Atom  12H    basis set group =>   4
Atom  13C    basis set group =>   1
Atom  14C    basis set group =>   1
Atom  15H    basis set group =>   4
Atom  16H    basis set group =>   4
Atom  17C    basis set group =>   1
Atom  18H    basis set group =>   4
Atom  19H    basis set group =>   4
Atom  20C    basis set group =>   1
Atom  21H    basis set group =>   4
Atom  22H    basis set group =>   4
Atom  23N    basis set group =>   5
Atom  24H    basis set group =>   4
Atom  25H    basis set group =>   4
Atom  26H    basis set group =>   4
Atom  27H    basis set group =>   4
Atom  28H    basis set group =>   4
Atom  29H    basis set group =>   4
Atom  30C    basis set group =>   1
Atom  31N    basis set group =>   5
Atom  32N    basis set group =>   5
Atom  33H    basis set group =>   4
Atom  34C    basis set group =>   1
Atom  35C    basis set group =>   1
Atom  36H    basis set group =>   4
Atom  37C    basis set group =>   1
Atom  38H    basis set group =>   4
Atom  39H    basis set group =>   4
Atom  40H    basis set group =>   4
Atom  41H    basis set group =>   4
---------------------------------
AUXILIARY/J BASIS SET INFORMATION
---------------------------------
There are 5 groups of distinct atoms

 Group   1 Type C   : 12s5p4d2f1g contracted to 6s4p3d1f1g pattern {711111/2111/211/2/1}
 Group   2 Type O   : 12s5p4d2f1g contracted to 6s4p3d1f1g pattern {711111/2111/211/2/1}
 Group   3 Type P   : 14s5p5d2f1g contracted to 8s4p3d1f1g pattern {71111111/2111/311/2/1}
 Group   4 Type H   : 5s2p1d contracted to 3s1p1d pattern {311/2/1}
 Group   5 Type N   : 12s5p4d2f1g contracted to 6s4p3d1f1g pattern {711111/2111/211/2/1}

Atom   0C    basis set group =>   1
Atom   1C    basis set group =>   1
Atom   2O    basis set group =>   2
Atom   3O    basis set group =>   2
Atom   4O    basis set group =>   2
Atom   5O    basis set group =>   2
Atom   6P    basis set group =>   3
Atom   7H    basis set group =>   4
Atom   8H    basis set group =>   4
Atom   9H    basis set group =>   4
Atom  10H    basis set group =>   4
Atom  11H    basis set group =>   4
Atom  12H    basis set group =>   4
Atom  13C    basis set group =>   1
Atom  14C    basis set group =>   1
Atom  15H    basis set group =>   4
Atom  16H    basis set group =>   4
Atom  17C    basis set group =>   1
Atom  18H    basis set group =>   4
Atom  19H    basis set group =>   4
Atom  20C    basis set group =>   1
Atom  21H    basis set group =>   4
Atom  22H    basis set group =>   4
Atom  23N    basis set group =>   5
Atom  24H    basis set group =>   4
Atom  25H    basis set group =>   4
Atom  26H    basis set group =>   4
Atom  27H    basis set group =>   4
Atom  28H    basis set group =>   4
Atom  29H    basis set group =>   4
Atom  30C    basis set group =>   1
Atom  31N    basis set group =>   5
Atom  32N    basis set group =>   5
Atom  33H    basis set group =>   4
Atom  34C    basis set group =>   1
Atom  35C    basis set group =>   1
Atom  36H    basis set group =>   4
Atom  37C    basis set group =>   1
Atom  38H    basis set group =>   4
Atom  39H    basis set group =>   4
Atom  40H    basis set group =>   4
Atom  41H    basis set group =>   4
---------------------------------
AUXILIARY/C BASIS SET INFORMATION
---------------------------------
There are 5 groups of distinct atoms

 Group   1 Type C   : 10s9p8d6f3g1h contracted to 10s9p8d6f3g1h pattern {1111111111/111111111/11111111/111111/111/1}
 Group   2 Type O   : 10s9p8d6f3g1h contracted to 10s9p8d6f3g1h pattern {1111111111/111111111/11111111/111111/111/1}
 Group   3 Type P   : 13s11p10d7f3g1h contracted to 13s11p10d7f3g1h pattern {1111111111111/11111111111/1111111111/1111111/111/1}
 Group   4 Type H   : 7s5p4d2f1g contracted to 7s5p4d2f1g pattern {1111111/11111/1111/11/1}
 Group   5 Type N   : 10s9p8d6f3g1h contracted to 10s9p8d6f3g1h pattern {1111111111/111111111/11111111/111111/111/1}

Atom   0C    basis set group =>   1
Atom   1C    basis set group =>   1
Atom   2O    basis set group =>   2
Atom   3O    basis set group =>   2
Atom   4O    basis set group =>   2
Atom   5O    basis set group =>   2
Atom   6P    basis set group =>   3
Atom   7H    basis set group =>   4
Atom   8H    basis set group =>   4
Atom   9H    basis set group =>   4
Atom  10H    basis set group =>   4
Atom  11H    basis set group =>   4
Atom  12H    basis set group =>   4
Atom  13C    basis set group =>   1
Atom  14C    basis set group =>   1
Atom  15H    basis set group =>   4
Atom  16H    basis set group =>   4
Atom  17C    basis set group =>   1
Atom  18H    basis set group =>   4
Atom  19H    basis set group =>   4
Atom  20C    basis set group =>   1
Atom  21H    basis set group =>   4
Atom  22H    basis set group =>   4
Atom  23N    basis set group =>   5
Atom  24H    basis set group =>   4
Atom  25H    basis set group =>   4
Atom  26H    basis set group =>   4
Atom  27H    basis set group =>   4
Atom  28H    basis set group =>   4
Atom  29H    basis set group =>   4
Atom  30C    basis set group =>   1
Atom  31N    basis set group =>   5
Atom  32N    basis set group =>   5
Atom  33H    basis set group =>   4
Atom  34C    basis set group =>   1
Atom  35C    basis set group =>   1
Atom  36H    basis set group =>   4
Atom  37C    basis set group =>   1
Atom  38H    basis set group =>   4
Atom  39H    basis set group =>   4
Atom  40H    basis set group =>   4
Atom  41H    basis set group =>   4


           ************************************************************
           *        Program running with 10 parallel MPI-processes    *
           *              working on a common directory               *
           ************************************************************
------------------------------------------------------------------------------
                             ORCA STARTUP CALCULATIONS
                           -- RI-GTO INTEGRALS CHOSEN --
------------------------------------------------------------------------------
------------------------------------------------------------------------------
                   ___                                                        
                  /   \      - P O W E R E D   B Y -                         
                 /     \                                                     
                 |  |  |   _    _      __       _____    __    __             
                 |  |  |  | |  | |    /  \     |  _  \  |  |  /  |          
                  \  \/   | |  | |   /    \    | | | |  |  | /  /          
                 / \  \   | |__| |  /  /\  \   | |_| |  |  |/  /          
                |  |  |   |  __  | /  /__\  \  |    /   |      \           
                |  |  |   | |  | | |   __   |  |    \   |  |\   \          
                \     /   | |  | | |  |  |  |  | |\  \  |  | \   \       
                 \___/    |_|  |_| |__|  |__|  |_| \__\ |__|  \__/        
                                                                              
                      - O R C A' S   B I G   F R I E N D -                    
                                      &                                       
                       - I N T E G R A L  F E E D E R -                       
                                                                              
 v1 FN, 2020, v2 2021, v3 2022-2024                                           
------------------------------------------------------------------------------


----------------------
SHARK INTEGRAL PACKAGE
----------------------

Number of atoms                             ...     42
Number of basis functions                   ...   1951
Number of shells                            ...    615
Maximum angular momentum                    ...      4
Integral batch strategy                     ... SHARK/LIBINT Hybrid
RI-J (if used) integral strategy            ... SPLIT-RIJ (Revised 2003 algorithm where possible)
Printlevel                                  ...      1
Contraction scheme used                     ... SEGMENTED contraction
Prescreening option                         ... SCHWARTZ
   Thresh                                   ... 2.500e-11
   Tcut                                     ... 2.500e-12
   Tpresel                                  ... 2.500e-12 
Coulomb Range Separation                    ... NOT USED
Exchange Range Separation                   ... NOT USED
Multipole approximations                    ... NOT USED
Finite Nucleus Model                        ... NOT USED
CABS basis                                  ... NOT available
Auxiliary Coulomb fitting basis             ... AVAILABLE
   # of basis functions in Aux-J            ...   1148
   # of shells in Aux-J                     ...    392
   Maximum angular momentum in Aux-J        ...      4
Auxiliary J/K fitting basis                 ... NOT available
Auxiliary Correlation fitting basis         ... AVAILABLE
   # of basis functions in Aux-C            ...   4412
   # of shells in Aux-C                     ...   1130
   Maximum angular momentum in Aux-C        ...      5
Auxiliary 'external' fitting basis          ... NOT available

Checking pre-screening integrals            ... done (  0.0 sec) Dimension = 615
Check shell pair data                       ... done (  0.0 sec)
Shell pair information
Shell pair cut-off parameter TPreSel        ...   2.5e-12
Total number of shell pairs                 ...    189420
Shell pairs after pre-screening             ...    127572
Total number of primitive shell pairs       ...    415389
Primitive shell pairs kept                  ...    205735
          la=0 lb=0:  19545 shell pairs
          la=1 lb=0:  30450 shell pairs
          la=1 lb=1:  11880 shell pairs
          la=2 lb=0:  19243 shell pairs
          la=2 lb=1:  15255 shell pairs
          la=2 lb=2:   4817 shell pairs
          la=3 lb=0:   8217 shell pairs
          la=3 lb=1:   6830 shell pairs
          la=3 lb=2:   4084 shell pairs
          la=3 lb=3:    834 shell pairs
          la=4 lb=0:   2515 shell pairs
          la=4 lb=1:   2075 shell pairs
          la=4 lb=2:   1254 shell pairs
          la=4 lb=3:    487 shell pairs
          la=4 lb=4:     86 shell pairs

Calculating one electron integrals          ... done (  0.3 sec)
Calculating RI/J V-Matrix + Cholesky decomp.... done (  0.0 sec)
Calculating RI/C V-Matrix + Cholesky decomp.... done (  0.6 sec)
Calculating Nuclear repulsion               ... done (  0.0 sec) ENN=    435.545616883239 Eh

Diagonalization of the overlap matrix:
Smallest eigenvalue                        ... 1.988e-08
Time for diagonalization                   ...    0.598 sec
Threshold for overlap eigenvalues          ... 1.000e-07
Number of eigenvalues below threshold      ... 5
Smallest eigenvalue above threshold        ... 1.176e-07

IMPORTANT:
Smallest eigenvalue of S below the DiffSThresh (1.000e-06) while
Thresh>1e-12 and/or TCut>1e-13! In order to avoid SCF convergence issues,
Thresh will be set to at least 1e-12 and TCut to at least 1e-13.
This can be turned off by adding %SCF DiffSThresh -1 END to the input.

Time for construction of square roots      ...    0.357 sec
Total time needed                          ...    0.978 sec

-------------------
DFT GRID GENERATION
-------------------

General Integration Accuracy     IntAcc      ... 4.388
Radial Grid Type                 RadialGrid  ... OptM3 with GC (2021)
Angular Grid (max. ang.)         AngularGrid ... 4 (Lebedev-302)
Angular grid pruning method      GridPruning ... 4 (adaptive)
Weight generation scheme         WeightScheme... mBecke (2022)
Basis function cutoff            BFCut       ... 1.0000e-11
Integration weight cutoff        WCut        ... 1.0000e-14
Partially contracted basis set               ... off
Rotationally invariant grid construction     ... off
Angular grids for H and He will be reduced by one unit
Diffuse basis detected: some atoms will have their outermost
                        angular grid increased by 1.

Total number of grid points                  ...   193972
Total number of batches                      ...     3054
Average number of points per batch           ...       63
Average number of grid points per atom       ...     4618

--------------------
COSX GRID GENERATION
--------------------

GRIDX 1
-------
General Integration Accuracy     IntAcc      ... 3.816
Radial Grid Type                 RadialGrid  ... OptM3 with GC (2021)
Angular Grid (max. ang.)         AngularGrid ... 1 (Lebedev-50)
Angular grid pruning method      GridPruning ... 4 (adaptive)
Weight generation scheme         WeightScheme... mBecke (2022)
Basis function cutoff            BFCut       ... 1.0000e-11
Integration weight cutoff        WCut        ... 1.0000e-14
Partially contracted basis set               ... on
Rotationally invariant grid construction     ... off
Angular grids for H and He will be reduced by one unit
Diffuse basis detected: some atoms will have their outermost
                        angular grid increased by 1.

Total number of grid points                  ...    25187
Total number of batches                      ...      220
Average number of points per batch           ...      114
Average number of grid points per atom       ...      600
UseSFitting                                  ... on

GRIDX 2
-------
General Integration Accuracy     IntAcc      ... 4.020
Radial Grid Type                 RadialGrid  ... OptM3 with GC (2021)
Angular Grid (max. ang.)         AngularGrid ... 2 (Lebedev-110)
Angular grid pruning method      GridPruning ... 4 (adaptive)
Weight generation scheme         WeightScheme... mBecke (2022)
Basis function cutoff            BFCut       ... 1.0000e-11
Integration weight cutoff        WCut        ... 1.0000e-14
Partially contracted basis set               ... on
Rotationally invariant grid construction     ... off
Angular grids for H and He will be reduced by one unit
Diffuse basis detected: some atoms will have their outermost
                        angular grid increased by 1.

Total number of grid points                  ...    55596
Total number of batches                      ...      457
Average number of points per batch           ...      121
Average number of grid points per atom       ...     1324
UseSFitting                                  ... on

GRIDX 3
-------
General Integration Accuracy     IntAcc      ... 4.338
Radial Grid Type                 RadialGrid  ... OptM3 with GC (2021)
Angular Grid (max. ang.)         AngularGrid ... 3 (Lebedev-194)
Angular grid pruning method      GridPruning ... 4 (adaptive)
Weight generation scheme         WeightScheme... mBecke (2022)
Basis function cutoff            BFCut       ... 1.0000e-11
Integration weight cutoff        WCut        ... 1.0000e-14
Partially contracted basis set               ... on
Rotationally invariant grid construction     ... off
Angular grids for H and He will be reduced by one unit
Diffuse basis detected: some atoms will have their outermost
                        angular grid increased by 1.

Total number of grid points                  ...   123957
Total number of batches                      ...      991
Average number of points per batch           ...      125
Average number of grid points per atom       ...     2951
UseSFitting                                  ... on
Initializing property integral containers    ... done (  0.0 sec)

SHARK setup successfully completed in  11.8 seconds

Maximum memory used throughout the entire STARTUP-calculation: 298.4 MB


           ************************************************************
           *        Program running with 10 parallel MPI-processes    *
           *              working on a common directory               *
           ************************************************************
-------------------------------------------------------------------------------
                                 ORCA GUESS
                   Start orbitals & Density for SCF / CASSCF
-------------------------------------------------------------------------------

------------
SCF SETTINGS
------------
Hamiltonian:
 Density Functional     Method          .... DFT(GTOs)
 Exchange Functional    Exchange        .... PBE
   PBE kappa parameter   XKappa         ....  0.804000
   PBE mue parameter    XMuePBE         ....  0.219520
 Correlation Functional Correlation     .... P86
 LDA part of GGA corr.  LDAOpt          .... VWN-5
 Gradients option       PostSCFGGA      .... off
 Hybrid DFT is turned on
   Fraction HF Exchange ScalHFX         ....  0.690000
   Scaling of DF-GGA-X  ScalDFX         ....  0.310000
   Scaling of DF-GGA-C  ScalDFC         ....  0.422400
   Scaling of DF-LDA-C  ScalLDAC        ....  0.422400
   Perturbative correction              ....  1.000000
 RI-approximation to the Coulomb term is turned on
   Number of AuxJ basis functions       .... 1148
   RIJ-COSX (HFX calculated with COS-X)).... on


General Settings:
 Integral files         IntName         .... pg1_frag
 Hartree-Fock type      HFTyp           .... RHF
 Total Charge           Charge          ....   -1
 Multiplicity           Mult            ....    1
 Number of Electrons    NEL             ....   66
 Basis Dimension        Dim             .... 1951
 Nuclear Repulsion      ENuc            ....    435.5456168832 Eh

Convergence Acceleration:
 AO-DIIS                CNVDIIS         .... on
   Start iteration      DIISMaxIt       ....    12
   Startup error        DIISStart       ....  0.200000
   # of expansion vecs  DIISMaxEq       ....     5
   Bias factor          DIISBfac        ....   1.050
   Max. coefficient     DIISMaxC        ....  10.000
 MO-DIIS                CNVKDIIS        .... off
 Trust-Rad. Augm. Hess. CNVTRAH         .... auto
   Auto Start mean grad. ratio tolernc. ....  1.125000
   Auto Start start iteration           ....    50
   Auto Start num. interpolation iter.  ....    10
   Max. Number of Micro iterations      ....    24
   Max. Number of Macro iterations      .... Maxiter - #DIIS iter
   Number of Davidson start vectors     ....     2
   Converg. threshold    (grad. norm)   ....   1.000e-05
   Grad. Scal. Fac. for Micro threshold ....   0.100
   Minimum threshold for Micro iter.    ....   1.000e-02
   NR start threshold (gradient norm)   ....   1.000e-04
   Initial trust radius                 ....   0.400
   Minimum AH scaling param. (alpha)    ....   1.000
   Maximum AH scaling param. (alpha)    .... 1000.000
   Quad. conv. algorithm                .... NR
   White noise on init. David. guess    .... on
   Maximum white noise                  ....   0.010
   Pseudo random numbers                .... off
   Inactive MOs                         .... canonical
   Orbital update algorithm             .... Taylor
   Preconditioner                       .... Diag
   Full preconditioner red. dimension   ....   250
 SOSCF                  CNVSOSCF        .... on
   Start iteration      SOSCFMaxIt      ....   150
   Startup grad/error   SOSCFStart      ....  0.003300
   Hessian update       SOSCFHessUp     .... L-BFGS
 Level Shifting         CNVShift        .... on
   Level shift para.    LevelShift      ....    0.2500
   Turn off err/grad.   ShiftErr        ....    0.0010
 Zerner damping         CNVZerner       .... off
 Static damping         CNVDamp         .... on
   Fraction old density DampFac         ....    0.7000
   Max. Damping (<1)    DampMax         ....    0.9800
   Min. Damping (>=0)   DampMin         ....    0.0000
   Turn off err/grad.   DampErr         ....    0.1000

SCF Procedure:
 Maximum # iterations   MaxIter         ....   125
 SCF integral mode      SCFMode         .... Direct
   Integral package                     .... SHARK and LIBINT hybrid scheme
 Reset frequency        DirectResetFreq ....    20
 Integral Threshold     Thresh          ....  1.000e-12 Eh
 Primitive CutOff       TCut            ....  1.000e-13 Eh

Convergence Tolerance:
 Convergence Check Mode ConvCheckMode   .... Total+1el-Energy
 Convergence forced     ConvForced      .... 0
 Energy Change          TolE            ....  1.000e-08 Eh
 1-El. energy change                    ....  1.000e-05 Eh
 Orbital Gradient       TolG            ....  1.000e-05
 Orbital Rotation angle TolX            ....  1.000e-05
 DIIS Error             TolErr          ....  5.000e-07

------------------------------
INITIAL GUESS: MODEL POTENTIAL
------------------------------
Loading Hartree-Fock densities                     ... done
Calculating cut-offs                               ... done
Initializing the effective Hamiltonian             ... done
Setting up the integral package (SHARK)            ... done
Starting the Coulomb interaction                   ... done (   0.8 sec)
Making the grid                                    ... done (   0.4 sec)
Mapping shells                                     ... done
Starting the XC term evaluation                    ... done (   1.4 sec)
  promolecular density results
     # of electrons  =     64.993945599
     EX              =    -67.181687422
     EC              =      0.054199665
     EX+EC           =    -67.127487757
Transforming the Hamiltonian                       ... done (   0.3 sec)
Diagonalizing the Hamiltonian                      ... done (   0.6 sec)
Back transforming the eigenvectors                 ... done (   0.2 sec)
Now organizing SCF variables                       ... done
                      ------------------
                      INITIAL GUESS DONE (   3.8 sec)
                      ------------------
             **** ENERGY FILE WAS UPDATED (pg1_frag.en.tmp) ****
Finished Guess after   5.4 sec
Maximum memory used throughout the entire GUESS-calculation: 286.9 MB


           ************************************************************
           *        Program running with 10 parallel MPI-processes    *
           *              working on a common directory               *
           ************************************************************

-------------------------------------------------------------------------------------------
                                      ORCA LEAN-SCF
                              memory conserving SCF solver
-------------------------------------------------------------------------------------------

--------------------
CPCM SOLVATION MODEL
--------------------
CPCM parameters:
  Epsilon                                         ...       3.0000
  Refrac                                          ...       1.3300
  Rsolv                                           ...       1.3000
  Surface type                                    ... GAUSSIAN VDW
  Discretization scheme                           ... Constant charge density
    Threshold for H atoms                         ...       5.0000 (charges/Ang^2)
    Threshold for non-H atoms                     ...       5.0000 (charges/Ang^2)
  Epsilon function type                           ...         CPCM
Solvent:                                          ... CUSTOM
Radii:
  Scheme                                          ... Element-dependent radii
  Radius for C  used is    3.8550 Bohr (=   2.0400 Ang.)
  Radius for O  used is    3.4469 Bohr (=   1.8240 Ang.)
  Radius for P  used is    4.0818 Bohr (=   2.1600 Ang.)
  Radius for H  used is    2.4944 Bohr (=   1.3200 Ang.)
  Radius for N  used is    3.5149 Bohr (=   1.8600 Ang.)
Calculating surface                               ...        done! (  0.0s)
Cavity surface points                             ...         3636
Cavity Volume                                     ...    2358.4192
Cavity Surface-area                               ...    1313.0057
Calculating surface distance matrix               ...        done! (  0.1s)
Performing Cholesky decomposition & store         ...        done! (  0.3s)
Overall time for CPCM initialization              ...                 0.4s

----------------------------------------D-I-I-S--------------------------------------------
Iteration    Energy (Eh)           Delta-E    RMSDP     MaxDP     DIISErr   Damp  Time(sec)
-------------------------------------------------------------------------------------------
               ***  Starting incremental Fock matrix formation  ***
    1    -720.5125082221903767     0.00e+00  1.97e-03  1.07e+00  3.86e-01  0.700  49.6
    2    -720.6567812434383313    -1.44e-01  2.63e-03  1.54e+00  1.97e-01  0.700  31.0
                               ***Turning on AO-DIIS***
    3    -720.7249613429370356    -6.82e-02  5.24e-03  2.94e+00  8.20e-02  0.700  29.9
    4    -720.7660231479961794    -4.11e-02  1.97e-02  1.09e+01  5.44e-02  0.000  29.3
    5    -720.8561616406105941    -9.01e-02  4.26e-03  2.53e+00  5.40e-03  0.000  30.6
                              *** Initializing SOSCF ***
---------------------------------------S-O-S-C-F--------------------------------------
Iteration    Energy (Eh)           Delta-E    RMSDP     MaxDP     MaxGrad    Time(sec)
--------------------------------------------------------------------------------------
    6    -720.8563238935988693    -1.62e-04  7.64e-04  5.32e-01  1.92e-03    28.9
               *** Restarting incremental Fock matrix formation ***
    7    -720.8563316031473960    -7.71e-06  2.66e-02  1.36e+01  2.22e-04    52.4
    8    -720.8563546997464755    -2.31e-05  6.55e-04  1.20e-01  6.03e-05    48.1
    9    -720.8563550289962905    -3.29e-07  3.39e-04  5.42e-02  4.93e-05    41.3
   10    -720.8563555063366266    -4.77e-07  5.76e-05  1.14e-02  4.91e-06    39.6
   11    -720.8563555131717067    -6.84e-09  1.45e-05  4.57e-03  2.80e-06    31.4
                 **** Energy Check signals convergence ****

               *****************************************************
               *                     SUCCESS                       *
               *           SCF CONVERGED AFTER  11 CYCLES          *
               *****************************************************

Recomputing exchange energy using gridx3       ... done (   83.942 sec)
Old exchange energy                            :    -47.325052779 Eh
New exchange energy                            :    -47.325059649 Eh
Exchange energy change after final integration :     -0.000006870 Eh
Total energy after final integration           :   -720.856362383 Eh
             **** ENERGY FILE WAS UPDATED (pg1_frag.en.tmp) ****

----------------
TOTAL SCF ENERGY
----------------

Total Energy       :       -720.85636238289533 Eh          -19615.49885 eV

Components:
Nuclear Repulsion  :        435.54561688323895 Eh           11851.79877 eV
Electronic Energy  :      -1156.33012671359825 Eh          -31465.34241 eV
One Electron Energy:      -1873.27765233370519 Eh          -50974.47641 eV
Two Electron Energy:        716.94752562010694 Eh           19509.13400 eV
CPCM Dielectric    :         -0.07184568281236 Eh              -1.95502 eV

Virial components:
Potential Energy   :      -1440.34628679688149 Eh          -39193.81504 eV
Kinetic Energy     :        719.48992441398605 Eh           19578.31619 eV
Virial Ratio       :          2.00189917596139

DFT components:
N(Alpha)           :       33.000020392809 electrons
N(Beta)            :       33.000020392809 electrons
N(Total)           :       66.000040785617 electrons
E(X)               :      -21.187557396111 Eh       
E(C)               :       -1.087280222029 Eh       
E(XC)              :      -22.274837618140 Eh       

CPCM Solvation Model Properties:
Surface-charge          :          0.98584461949562
Corrected charge        :          1.00000000000000
Outlying charge corr.   :          0.00000723687673 Eh               0.00020 eV
Free-energy (cav+disp)  :  This term is not implemented in the current solvation scheme

---------------
SCF CONVERGENCE
---------------

  Last Energy change         ...    6.8351e-09  Tolerance :   1.0000e-08
  Last MAX-Density change    ...    4.5719e-03  Tolerance :   1.0000e-07
  Last RMS-Density change    ...    1.4532e-05  Tolerance :   5.0000e-09
  Last DIIS Error            ...    1.9170e-03  Tolerance :   5.0000e-07
  Last Orbital Gradient      ...    2.7966e-06  Tolerance :   1.0000e-05
  Last Orbital Rotation      ...    3.3708e-06  Tolerance :   1.0000e-05


----------------
ORBITAL ENERGIES
----------------

  NO   OCC          E(Eh)            E(eV) 
   0   2.0000     -78.846423     -2145.5202 
   1   2.0000     -19.952326      -542.9304 
   2   2.0000     -19.951659      -542.9122 
   3   2.0000     -19.862064      -540.4742 
   4   2.0000     -19.861110      -540.4483 
   5   2.0000     -10.811819      -294.2045 
   6   2.0000     -10.810642      -294.1725 
   7   2.0000      -7.126343      -193.9177 
   8   2.0000      -5.124672      -139.4494 
   9   2.0000      -5.123617      -139.4207 
  10   2.0000      -5.120823      -139.3447 
  11   2.0000      -1.223954       -33.3055 
  12   2.0000      -1.178552       -32.0700 
  13   2.0000      -1.083484       -29.4831 
  14   2.0000      -1.041236       -28.3335 
  15   2.0000      -0.817960       -22.2578 
  16   2.0000      -0.779887       -21.2218 
  17   2.0000      -0.621318       -16.9069 
  18   2.0000      -0.565665       -15.3925 
  19   2.0000      -0.528940       -14.3932 
  20   2.0000      -0.527529       -14.3548 
  21   2.0000      -0.516930       -14.0664 
  22   2.0000      -0.484011       -13.1706 
  23   2.0000      -0.471319       -12.8252 
  24   2.0000      -0.423159       -11.5147 
  25   2.0000      -0.397215       -10.8088 
  26   2.0000      -0.389712       -10.6046 
  27   2.0000      -0.351526        -9.5655 
  28   2.0000      -0.349659        -9.5147 
  29   2.0000      -0.334389        -9.0992 
  30   2.0000      -0.322331        -8.7711 
  31   2.0000      -0.295095        -8.0299 
  32   2.0000      -0.277794        -7.5592 
  33   0.0000       0.053265         1.4494 
  34   0.0000       0.064882         1.7655 
  35   0.0000       0.074910         2.0384 
  36   0.0000       0.081388         2.2147 
  37   0.0000       0.084144         2.2897 
  38   0.0000       0.089628         2.4389 
  39   0.0000       0.095277         2.5926 
  40   0.0000       0.098797         2.6884 
  41   0.0000       0.105311         2.8657 
  42   0.0000       0.109014         2.9664 
  43   0.0000       0.115398         3.1402 
*Only the first 10 virtual orbitals were printed.

                    ********************************
                    * MULLIKEN POPULATION ANALYSIS *
                    ********************************

-----------------------
MULLIKEN ATOMIC CHARGES
-----------------------
   0 C :   -0.171854
   1 C :   -0.226544
   2 O :   -0.572705
   3 O :   -0.767090
   4 O :   -0.695886
   5 O :   -0.690668
   6 P :    1.048735
   7 H :   -0.065810
   8 H :    0.202606
   9 H :    0.331421
  10 H :   -0.104817
  11 H :    0.385484
  12 H :    0.215096
  13 C :    0.002143
  14 C :    0.000245
  15 H :    0.000906
  16 H :   -0.018157
  17 C :   -0.027300
  18 H :    0.021595
  19 H :    0.003639
  20 C :    0.021255
  21 H :   -0.000012
  22 H :    0.000612
  23 N :    0.017110
  24 H :    0.012019
  25 H :    0.012745
  26 H :   -0.004153
  27 H :   -0.000585
  28 H :    0.000262
  29 H :    0.000393
  30 C :   -0.000520
  31 N :   -0.001951
  32 N :    0.006107
  33 H :    0.016524
  34 C :    0.000609
  35 C :   -0.022820
  36 H :    0.081996
  37 C :   -0.011320
  38 H :    0.001114
  39 H :    0.000039
  40 H :   -0.000372
  41 H :   -0.000095
Sum of atomic charges:   -1.0000000

--------------------------------
MULLIKEN REDUCED ORBITAL CHARGES
--------------------------------
  0 C s       :     3.193674  s :     3.193674
      pz      :     0.976949  p :     2.833816
      px      :     0.766855
      py      :     1.090012
      dz2     :     0.013529  d :     0.127756
      dxz     :     0.016626
      dyz     :     0.045806
      dx2y2   :     0.020148
      dxy     :     0.031648
      f0      :     0.001232  f :     0.014909
      f+1     :     0.002936
      f-1     :     0.000978
      f+2     :     0.003094
      f-2     :     0.003131
      f+3     :     0.001939
      f-3     :     0.001599
      g0      :     0.000124  g :     0.001699
      g+1     :     0.000252
      g-1     :     0.000077
      g+2     :     0.000166
      g-2     :     0.000254
      g+3     :     0.000331
      g-3     :     0.000290
      g+4     :     0.000102
      g-4     :     0.000102

  1 C s       :     3.183852  s :     3.183852
      pz      :     1.136476  p :     2.902978
      px      :     0.777997
      py      :     0.988505
      dz2     :     0.012215  d :     0.123073
      dxz     :     0.023344
      dyz     :     0.027317
      dx2y2   :     0.042399
      dxy     :     0.017797
      f0      :     0.002419  f :     0.014943
      f+1     :     0.001142
      f-1     :     0.000737
      f+2     :     0.000168
      f-2     :     0.003180
      f+3     :     0.004785
      f-3     :     0.002514
      g0      :     0.000108  g :     0.001698
      g+1     :     0.000227
      g-1     :     0.000136
      g+2     :     0.000075
      g-2     :     0.000173
      g+3     :     0.000041
      g-3     :     0.000223
      g+4     :     0.000343
      g-4     :     0.000373

  2 O s       :     3.900278  s :     3.900278
      pz      :     1.597929  p :     4.661258
      px      :     1.365834
      py      :     1.697495
      dz2     :     0.001066  d :     0.006976
      dxz     :     0.002379
      dyz     :     0.000383
      dx2y2   :     0.003124
      dxy     :     0.000024
      f0      :     0.000276  f :     0.004035
      f+1     :     0.000470
      f-1     :     0.000212
      f+2     :     0.000723
      f-2     :     0.000902
      f+3     :     0.000663
      f-3     :     0.000790
      g0      :     0.000016  g :     0.000158
      g+1     :     0.000019
      g-1     :     0.000005
      g+2     :     0.000018
      g-2     :     0.000029
      g+3     :     0.000024
      g-3     :     0.000031
      g+4     :     0.000008
      g-4     :     0.000009

  3 O s       :     3.870095  s :     3.870095
      pz      :     1.676898  p :     4.875017
      px      :     1.612598
      py      :     1.585522
      dz2     :     0.004299  d :     0.019722
      dxz     :     0.002167
      dyz     :     0.003428
      dx2y2   :     0.006004
      dxy     :     0.003823
      f0      :     0.000161  f :     0.002184
      f+1     :     0.000241
      f-1     :     0.000354
      f+2     :     0.000336
      f-2     :     0.000358
      f+3     :     0.000330
      f-3     :     0.000403
      g0      :     0.000007  g :     0.000073
      g+1     :     0.000004
      g-1     :     0.000006
      g+2     :     0.000002
      g-2     :     0.000012
      g+3     :     0.000012
      g-3     :     0.000011
      g+4     :     0.000009
      g-4     :     0.000010

  4 O s       :     3.852946  s :     3.852946
      pz      :     1.600331  p :     4.826095
      px      :     1.719161
      py      :     1.506603
      dz2     :     0.002630  d :     0.014590
      dxz     :     0.004764
      dyz     :     0.003113
      dx2y2   :     0.002797
      dxy     :     0.001288
      f0      :     0.000188  f :     0.002183
      f+1     :     0.000113
      f-1     :     0.000551
      f+2     :     0.000373
      f-2     :     0.000405
      f+3     :     0.000266
      f-3     :     0.000287
      g0      :     0.000006  g :     0.000071
      g+1     :     0.000002
      g-1     :     0.000011
      g+2     :     0.000010
      g-2     :     0.000007
      g+3     :     0.000012
      g-3     :     0.000012
      g+4     :     0.000006
      g-4     :     0.000005

  5 O s       :     4.009650  s :     4.009650
      pz      :     1.559635  p :     4.672022
      px      :     1.472379
      py      :     1.640008
      dz2     :    -0.001336  d :     0.004741
      dxz     :     0.002297
      dyz     :    -0.000453
      dx2y2   :     0.002073
      dxy     :     0.002160
      f0      :     0.000533  f :     0.004098
      f+1     :     0.000485
      f-1     :     0.000433
      f+2     :     0.000302
      f-2     :     0.000681
      f+3     :     0.000751
      f-3     :     0.000913
      g0      :     0.000019  g :     0.000157
      g+1     :     0.000021
      g-1     :     0.000014
      g+2     :     0.000013
      g-2     :     0.000029
      g+3     :     0.000003
      g-3     :     0.000011
      g+4     :     0.000024
      g-4     :     0.000023

  6 P s       :     5.167788  s :     5.167788
      pz      :     2.567800  p :     7.871339
      px      :     2.618295
      py      :     2.685244
      dz2     :     0.133153  d :     0.724960
      dxz     :     0.118244
      dyz     :     0.155904
      dx2y2   :     0.165254
      dxy     :     0.152404
      f0      :     0.015002  f :     0.161395
      f+1     :     0.018849
      f-1     :     0.034664
      f+2     :     0.027869
      f-2     :     0.024929
      f+3     :     0.027063
      f-3     :     0.013019
      g0      :     0.003062  g :     0.025783
      g+1     :     0.001989
      g-1     :     0.002843
      g+2     :     0.002675
      g-2     :     0.003337
      g+3     :     0.003075
      g-3     :     0.003384
      g+4     :     0.003048
      g-4     :     0.002369

  7 H s       :     1.005677  s :     1.005677
      pz      :     0.018934  p :     0.056822
      px      :     0.023366
      py      :     0.014522
      dz2     :     0.000538  d :     0.003102
      dxz     :     0.000662
      dyz     :     0.000494
      dx2y2   :     0.000689
      dxy     :     0.000720
      f0      :     0.000003  f :     0.000208
      f+1     :     0.000042
      f-1     :     0.000014
      f+2     :     0.000045
      f-2     :     0.000035
      f+3     :     0.000041
      f-3     :     0.000027

  8 H s       :     0.740668  s :     0.740668
      pz      :     0.012516  p :     0.052868
      px      :     0.022043
      py      :     0.018309
      dz2     :     0.000778  d :     0.003638
      dxz     :     0.000742
      dyz     :     0.000652
      dx2y2   :     0.000816
      dxy     :     0.000650
      f0      :     0.000005  f :     0.000220
      f+1     :     0.000026
      f-1     :     0.000057
      f+2     :     0.000050
      f-2     :     0.000032
      f+3     :     0.000027
      f-3     :     0.000023

  9 H s       :     0.634756  s :     0.634756
      pz      :     0.011324  p :     0.029875
      px      :    -0.002038
      py      :     0.020588
      dz2     :     0.000844  d :     0.003723
      dxz     :     0.000832
      dyz     :     0.000562
      dx2y2   :     0.000645
      dxy     :     0.000841
      f0      :     0.000008  f :     0.000226
      f+1     :     0.000023
      f-1     :     0.000063
      f+2     :     0.000042
      f-2     :     0.000040
      f+3     :     0.000032
      f-3     :     0.000018

 10 H s       :     1.031124  s :     1.031124
      pz      :     0.048743  p :     0.070364
      px      :     0.010560
      py      :     0.011061
      dz2     :     0.000702  d :     0.003121
      dxz     :     0.000976
      dyz     :     0.001010
      dx2y2   :     0.000107
      dxy     :     0.000327
      f0      :     0.000034  f :     0.000208
      f+1     :     0.000053
      f-1     :     0.000069
      f+2     :     0.000016
      f-2     :     0.000032
      f+3     :     0.000001
      f-3     :     0.000002

 11 H s       :     0.591148  s :     0.591148
      pz      :     0.011024  p :     0.019562
      px      :    -0.005011
      py      :     0.013550
      dz2     :     0.000973  d :     0.003587
      dxz     :     0.000581
      dyz     :     0.000337
      dx2y2   :     0.000903
      dxy     :     0.000793
      f0      :     0.000012  f :     0.000219
      f+1     :     0.000071
      f-1     :     0.000031
      f+2     :     0.000014
      f-2     :     0.000018
      f+3     :     0.000052
      f-3     :     0.000022

 12 H s       :     0.728625  s :     0.728625
      pz      :     0.020434  p :     0.052404
      px      :     0.010125
      py      :     0.021845
      dz2     :     0.001029  d :     0.003652
      dxz     :     0.000241
      dyz     :     0.000707
      dx2y2   :     0.000448
      dxy     :     0.001227
      f0      :     0.000013  f :     0.000223
      f+1     :     0.000008
      f-1     :     0.000097
      f+2     :     0.000015
      f-2     :     0.000018
      f+3     :     0.000053
      f-3     :     0.000021

 13 C s       :     0.000135  s :     0.000135
      pz      :    -0.000566  p :    -0.001680
      px      :    -0.001573
      py      :     0.000458
      dz2     :    -0.000134  d :    -0.000597
      dxz     :    -0.000451
      dyz     :     0.000071
      dx2y2   :     0.000124
      dxy     :    -0.000207
      f0      :    -0.000000  f :    -0.000000
      f+1     :    -0.000000
      f-1     :     0.000000
      f+2     :     0.000000
      f-2     :     0.000000
      f+3     :    -0.000000
      f-3     :    -0.000000
      g0      :    -0.000000  g :    -0.000000
      g+1     :    -0.000000
      g-1     :     0.000000
      g+2     :    -0.000000
      g-2     :    -0.000000
      g+3     :     0.000000
      g-3     :    -0.000000
      g+4     :    -0.000000
      g-4     :    -0.000000

 14 C s       :     0.003676  s :     0.003676
      pz      :    -0.001902  p :     0.001197
      px      :    -0.000736
      py      :     0.003836
      dz2     :     0.003506  d :    -0.005121
      dxz     :    -0.006880
      dyz     :    -0.000322
      dx2y2   :    -0.000075
      dxy     :    -0.001349
      f0      :    -0.000000  f :     0.000003
      f+1     :     0.000001
      f-1     :     0.000001
      f+2     :     0.000000
      f-2     :     0.000001
      f+3     :     0.000000
      f-3     :    -0.000000
      g0      :    -0.000000  g :     0.000000
      g+1     :    -0.000000
      g-1     :     0.000000
      g+2     :    -0.000000
      g-2     :    -0.000000
      g+3     :     0.000000
      g-3     :     0.000000
      g+4     :    -0.000000
      g-4     :     0.000000

 15 H s       :    -0.002027  s :    -0.002027
      pz      :    -0.000109  p :     0.001121
      px      :     0.000571
      py      :     0.000659
      dz2     :    -0.000000  d :    -0.000000
      dxz     :     0.000000
      dyz     :    -0.000000
      dx2y2   :     0.000000
      dxy     :    -0.000000
      f0      :     0.000000  f :    -0.000000
      f+1     :    -0.000000
      f-1     :     0.000000
      f+2     :    -0.000000
      f-2     :    -0.000000
      f+3     :    -0.000000
      f-3     :    -0.000000

 16 H s       :    -0.002734  s :    -0.002734
      pz      :     0.008507  p :     0.020889
      px      :     0.002857
      py      :     0.009526
      dz2     :    -0.000001  d :     0.000002
      dxz     :     0.000002
      dyz     :     0.000000
      dx2y2   :     0.000001
      dxy     :    -0.000000
      f0      :     0.000000  f :    -0.000000
      f+1     :     0.000000
      f-1     :    -0.000000
      f+2     :    -0.000000
      f-2     :    -0.000000
      f+3     :    -0.000000
      f-3     :     0.000000

 17 C s       :     0.000397  s :     0.000397
      pz      :     0.019632  p :     0.014703
      px      :    -0.004515
      py      :    -0.000414
      dz2     :    -0.006150  d :     0.012201
      dxz     :     0.010305
      dyz     :     0.000823
      dx2y2   :     0.001320
      dxy     :     0.005902
      f0      :     0.000000  f :    -0.000001
      f+1     :    -0.000000
      f-1     :    -0.000000
      f+2     :     0.000000
      f-2     :    -0.000001
      f+3     :     0.000000
      f-3     :    -0.000000
      g0      :    -0.000000  g :     0.000000
      g+1     :     0.000000
      g-1     :    -0.000000
      g+2     :     0.000000
      g-2     :    -0.000000
      g+3     :     0.000000
      g-3     :     0.000000
      g+4     :    -0.000000
      g-4     :     0.000000

 18 H s       :    -0.013005  s :    -0.013005
      pz      :     0.001915  p :    -0.008586
      px      :    -0.013731
      py      :     0.003230
      dz2     :    -0.000001  d :    -0.000004
      dxz     :    -0.000002
      dyz     :     0.000001
      dx2y2   :    -0.000001
      dxy     :    -0.000001
      f0      :     0.000000  f :    -0.000000
      f+1     :     0.000000
      f-1     :    -0.000000
      f+2     :    -0.000000
      f-2     :     0.000000
      f+3     :    -0.000000
      f-3     :    -0.000000

 19 H s       :    -0.003868  s :    -0.003868
      pz      :     0.001077  p :     0.000229
      px      :    -0.000435
      py      :    -0.000414
      dz2     :     0.000000  d :     0.000000
      dxz     :     0.000000
      dyz     :     0.000000
      dx2y2   :     0.000000
      dxy     :     0.000000
      f0      :    -0.000000  f :     0.000000
      f+1     :    -0.000000
      f-1     :    -0.000000
      f+2     :     0.000000
      f-2     :     0.000000
      f+3     :    -0.000000
      f-3     :     0.000000

 20 C s       :    -0.002095  s :    -0.002095
      pz      :    -0.005167  p :    -0.015011
      px      :    -0.007458
      py      :    -0.002387
      dz2     :     0.000489  d :    -0.004146
      dxz     :     0.003148
      dyz     :    -0.006130
      dx2y2   :     0.000853
      dxy     :    -0.002506
      f0      :    -0.000001  f :    -0.000003
      f+1     :     0.000000
      f-1     :     0.000001
      f+2     :    -0.000000
      f-2     :    -0.000002
      f+3     :    -0.000000
      f-3     :    -0.000001
      g0      :     0.000000  g :    -0.000000
      g+1     :    -0.000000
      g-1     :    -0.000000
      g+2     :    -0.000000
      g-2     :    -0.000000
      g+3     :    -0.000000
      g-3     :    -0.000000
      g+4     :    -0.000000
      g-4     :     0.000000

 21 H s       :    -0.000061  s :    -0.000061
      pz      :     0.000119  p :     0.000073
      px      :    -0.000003
      py      :    -0.000043
      dz2     :    -0.000000  d :    -0.000000
      dxz     :     0.000000
      dyz     :    -0.000000
      dx2y2   :    -0.000000
      dxy     :     0.000000
      f0      :     0.000000  f :    -0.000000
      f+1     :    -0.000000
      f-1     :    -0.000000
      f+2     :    -0.000000
      f-2     :    -0.000000
      f+3     :    -0.000000
      f-3     :     0.000000

 22 H s       :    -0.001565  s :    -0.001565
      pz      :    -0.000557  p :     0.000951
      px      :    -0.000161
      py      :     0.001670
      dz2     :     0.000000  d :     0.000001
      dxz     :     0.000000
      dyz     :     0.000001
      dx2y2   :    -0.000001
      dxy     :    -0.000000
      f0      :     0.000000  f :     0.000000
      f+1     :     0.000000
      f-1     :     0.000000
      f+2     :     0.000000
      f-2     :     0.000000
      f+3     :    -0.000000
      f-3     :    -0.000000

 23 N s       :    -0.001860  s :    -0.001860
      pz      :    -0.004464  p :    -0.013313
      px      :    -0.000020
      py      :    -0.008829
      dz2     :    -0.000148  d :    -0.001908
      dxz     :     0.001109
      dyz     :    -0.003142
      dx2y2   :    -0.000002
      dxy     :     0.000276
      f0      :    -0.000001  f :    -0.000029
      f+1     :    -0.000002
      f-1     :    -0.000010
      f+2     :    -0.000009
      f-2     :    -0.000005
      f+3     :    -0.000001
      f-3     :    -0.000001
      g0      :    -0.000000  g :    -0.000001
      g+1     :     0.000000
      g-1     :     0.000000
      g+2     :    -0.000000
      g-2     :    -0.000000
      g+3     :    -0.000000
      g-3     :    -0.000000
      g+4     :     0.000000
      g-4     :    -0.000000

 24 H s       :    -0.009764  s :    -0.009764
      pz      :    -0.003167  p :    -0.002249
      px      :     0.000510
      py      :     0.000408
      dz2     :    -0.000004  d :    -0.000007
      dxz     :    -0.000000
      dyz     :    -0.000002
      dx2y2   :    -0.000000
      dxy     :     0.000000
      f0      :    -0.000000  f :    -0.000000
      f+1     :    -0.000000
      f-1     :    -0.000000
      f+2     :     0.000000
      f-2     :    -0.000000
      f+3     :    -0.000000
      f-3     :     0.000000

 25 H s       :     0.070102  s :     0.070102
      pz      :    -0.018756  p :    -0.083022
      px      :    -0.016820
      py      :    -0.047446
      dz2     :     0.000027  d :     0.000219
      dxz     :    -0.000004
      dyz     :     0.000161
      dx2y2   :     0.000017
      dxy     :     0.000018
      f0      :    -0.000000  f :    -0.000045
      f+1     :    -0.000004
      f-1     :    -0.000021
      f+2     :    -0.000005
      f-2     :    -0.000012
      f+3     :    -0.000002
      f-3     :     0.000001

 26 H s       :     0.002654  s :     0.002654
      pz      :    -0.000133  p :     0.001496
      px      :     0.000717
      py      :     0.000912
      dz2     :     0.000002  d :     0.000003
      dxz     :     0.000001
      dyz     :    -0.000000
      dx2y2   :     0.000001
      dxy     :     0.000000
      f0      :     0.000000  f :     0.000000
      f+1     :     0.000000
      f-1     :     0.000000
      f+2     :     0.000000
      f-2     :     0.000000
      f+3     :     0.000000
      f-3     :     0.000000

 27 H s       :     0.000549  s :     0.000549
      pz      :     0.000107  p :     0.000035
      px      :    -0.000055
      py      :    -0.000017
      dz2     :    -0.000000  d :    -0.000000
      dxz     :    -0.000000
      dyz     :    -0.000000
      dx2y2   :     0.000000
      dxy     :    -0.000000
      f0      :    -0.000000  f :    -0.000000
      f+1     :     0.000000
      f-1     :    -0.000000
      f+2     :    -0.000000
      f-2     :    -0.000000
      f+3     :    -0.000000
      f-3     :     0.000000

 28 H s       :    -0.000168  s :    -0.000168
      pz      :    -0.000019  p :    -0.000093
      px      :    -0.000104
      py      :     0.000030
      dz2     :    -0.000000  d :    -0.000000
      dxz     :    -0.000000
      dyz     :    -0.000000
      dx2y2   :     0.000000
      dxy     :    -0.000000
      f0      :    -0.000000  f :    -0.000000
      f+1     :     0.000000
      f-1     :    -0.000000
      f+2     :    -0.000000
      f-2     :    -0.000000
      f+3     :    -0.000000
      f-3     :     0.000000

 29 H s       :    -0.000313  s :    -0.000313
      pz      :    -0.000102  p :    -0.000080
      px      :     0.000002
      py      :     0.000020
      dz2     :    -0.000000  d :    -0.000000
      dxz     :    -0.000000
      dyz     :    -0.000000
      dx2y2   :    -0.000000
      dxy     :    -0.000000
      f0      :     0.000000  f :    -0.000000
      f+1     :    -0.000000
      f-1     :     0.000000
      f+2     :    -0.000000
      f-2     :    -0.000000
      f+3     :    -0.000000
      f-3     :    -0.000000

 30 C s       :     0.000042  s :     0.000042
      pz      :     0.000701  p :     0.000317
      px      :    -0.000214
      py      :    -0.000169
      dz2     :     0.000139  d :     0.000161
      dxz     :     0.000014
      dyz     :    -0.000015
      dx2y2   :     0.000021
      dxy     :     0.000002
      f0      :    -0.000000  f :     0.000000
      f+1     :     0.000000
      f-1     :    -0.000000
      f+2     :     0.000000
      f-2     :    -0.000000
      f+3     :    -0.000000
      f-3     :    -0.000000
      g0      :     0.000000  g :    -0.000000
      g+1     :    -0.000000
      g-1     :     0.000000
      g+2     :    -0.000000
      g-2     :    -0.000000
      g+3     :     0.000000
      g-3     :    -0.000000
      g+4     :    -0.000000
      g-4     :    -0.000000

[...]
      f0      :     0.000000  f :     0.000000
      f+1     :     0.000000
      f-1     :     0.000000
      f+2     :     0.000000
      f-2     :     0.000000
      f+3     :     0.000000
      f-3     :     0.000000



                      *****************************
                      * MAYER POPULATION ANALYSIS *
                      *****************************

  NA   - Mulliken gross atomic population
  ZA   - Total nuclear charge
  QA   - Mulliken gross atomic charge
  VA   - Mayer's total valence
  BVA  - Mayer's bonded valence
  FA   - Mayer's free valence

  ATOM       NA         ZA         QA         VA         BVA        FA
  0 C      6.1719     6.0000    -0.1719     3.5954     3.5954     0.0000
  1 C      6.2265     6.0000    -0.2265     3.7071     3.7071    -0.0000
  2 O      8.5727     8.0000    -0.5727     1.4048     1.4048     0.0000
  3 O      8.7671     8.0000    -0.7671     1.5724     1.5724     0.0000
  4 O      8.6959     8.0000    -0.6959     1.4882     1.4882    -0.0000
  5 O      8.6907     8.0000    -0.6907     1.3926     1.3926     0.0000
  6 P     13.9513    15.0000     1.0487     5.1477     5.1477     0.0000
  7 H      1.0658     1.0000    -0.0658     1.1520     1.1520     0.0000
  8 H      0.7974     1.0000     0.2026     1.0709     1.0709     0.0000
  9 H      0.6686     1.0000     0.3314     0.8440     0.8440     0.0000
 10 H      1.1048     1.0000    -0.1048     1.2370     1.2370    -0.0000
 11 H      0.6145     1.0000     0.3855     0.7202     0.7202     0.0000
 12 H      0.7849     1.0000     0.2151     1.0319     1.0319    -0.0000
 13 C     -0.0021     0.0000     0.0021    -0.0043    -0.0043     0.0000
 14 C     -0.0002     0.0000     0.0002    -0.0006    -0.0006    -0.0000
 15 H     -0.0009     0.0000     0.0009    -0.0018    -0.0018    -0.0000
 16 H      0.0182     0.0000    -0.0182     0.0361     0.0361    -0.0000
 17 C      0.0273     0.0000    -0.0273     0.0539     0.0539    -0.0000
 18 H     -0.0216     0.0000     0.0216    -0.0439    -0.0439     0.0000
 19 H     -0.0036     0.0000     0.0036    -0.0073    -0.0073     0.0000
 20 C     -0.0213     0.0000     0.0213    -0.0432    -0.0432     0.0000
 21 H      0.0000     0.0000    -0.0000     0.0000     0.0000     0.0000
 22 H     -0.0006     0.0000     0.0006    -0.0012    -0.0012     0.0000
 23 N     -0.0171     0.0000     0.0171    -0.0346    -0.0346     0.0000
 24 H     -0.0120     0.0000     0.0120    -0.0242    -0.0242     0.0000
 25 H     -0.0127     0.0000     0.0127    -0.0322    -0.0322    -0.0000
 26 H      0.0042     0.0000    -0.0042     0.0083     0.0083    -0.0000
 27 H      0.0006     0.0000    -0.0006     0.0012     0.0012    -0.0000
 28 H     -0.0003     0.0000     0.0003    -0.0005    -0.0005    -0.0000
 29 H     -0.0004     0.0000     0.0004    -0.0008    -0.0008    -0.0000
 30 C      0.0005     0.0000    -0.0005     0.0010     0.0010     0.0000
 31 N      0.0020     0.0000    -0.0020     0.0039     0.0039    -0.0000
 32 N     -0.0061     0.0000     0.0061    -0.0123    -0.0123     0.0000
 33 H     -0.0165     0.0000     0.0165    -0.0333    -0.0333    -0.0000
 34 C     -0.0006     0.0000     0.0006    -0.0012    -0.0012     0.0000
 35 C      0.0228     0.0000    -0.0228     0.0458     0.0458    -0.0000
 36 H     -0.0820     0.0000     0.0820    -0.1702    -0.1702    -0.0000
 37 C      0.0113     0.0000    -0.0113     0.0225     0.0225     0.0000
 38 H     -0.0011     0.0000     0.0011    -0.0022    -0.0022     0.0000
 39 H     -0.0000     0.0000     0.0000    -0.0001    -0.0001     0.0000
 40 H      0.0004     0.0000    -0.0004     0.0007     0.0007    -0.0000
 41 H      0.0001     0.0000    -0.0001     0.0002     0.0002     0.0000

  Mayer bond orders larger than 0.100000
B(  0-C ,  2-O ) :   0.8204 B(  0-C ,  7-H ) :   1.2028 B(  0-C ,  8-H ) :   0.8965 
B(  0-C ,  9-H ) :   0.8038 B(  1-C ,  5-O ) :   0.7951 B(  1-C , 10-H ) :   1.2030 
B(  1-C , 11-H ) :   0.7589 B(  1-C , 12-H ) :   0.9380 B(  2-O ,  6-P ) :   0.8802 
B(  2-O ,  7-H ) :  -0.1017 B(  3-O ,  6-P ) :   1.9030 B(  4-O ,  6-P ) :   1.6949 
B(  5-O ,  6-P ) :   0.8714 

-------
TIMINGS
-------

Total SCF time: 0 days 0 hours 8 min 20 sec 

Total time                  ....     500.843 sec
Sum of individual times     ....     501.924 sec  (100.2%)

SCF preparation             ....       1.773 sec  (  0.4%)
Fock matrix formation       ....     474.395 sec  ( 94.7%)
  Startup                   ....       0.754 sec  (  0.2% of F)
  Split-RI-J                ....      22.229 sec  (  4.7% of F)
  Chain of spheres X        ....     367.636 sec  ( 77.5% of F)
  XC integration            ....      51.237 sec  ( 10.8% of F)
    XC Preparation          ....       0.000 sec  (  0.0% of XC)
    Basis function eval.    ....       4.817 sec  (  9.4% of XC)
    Density eval.           ....      17.834 sec  ( 34.8% of XC)
    XC-Functional eval.     ....       0.094 sec  (  0.2% of XC)
    XC-Potential eval.      ....      21.401 sec  ( 41.8% of XC)
  CPCM terms                ....      30.798 sec  (  6.5% of F)
Diagonalization             ....       0.000 sec  (  0.0%)
Density matrix formation    ....       1.891 sec  (  0.4%)
Total Energy calculation    ....       1.016 sec  (  0.2%)
Population analysis         ....       0.976 sec  (  0.2%)
Orbital Transformation      ....       3.342 sec  (  0.7%)
Orbital Orthonormalization  ....       0.000 sec  (  0.0%)
DIIS solution               ....      12.590 sec  (  2.5%)
SOSCF solution              ....       5.699 sec  (  1.1%)
Finished LeanSCF after 501.5 sec

Maximum memory used throughout the entire LEANSCF-calculation: 468.5 MB


           ************************************************************
           *        Program running with 10 parallel MPI-processes    *
           *              working on a common directory               *
           ************************************************************

------------------------------------------------------------------------------
                                ORCA  MP2 
------------------------------------------------------------------------------

Freezing NCore=22 chemical core electrons

-------------
RI-MP2 ENERGY
-------------
Dimension of the orbital basis            ... 1951
Dimension of the AuxC basis               ... 4412
Memory devoted to MP2                     ... 2000 MB   
Data format for matrix containers         ... DOUBLE
Compression type for matrix containers    ... UNCOMPRESSED
Scaling for aa/bb pairs                   ...   5.660e-02
Scaling for ab pairs                      ...   5.935e-01
Overall scaling of the MP2 energy         ...   1.000e+00

-----------------------
SHARK RI TRANSFORMATION
-----------------------

Number of basis functions                ...   1951
Number of aux functions                  ...   4412
Number of operators                      ...      1
Generation of IJK                        ... NO
Generation of IAK                        ... YES
Generation of ABK                        ... NO
Orbital Range Operator  0:   11-  32 to   33-1950

Aux basis identifier                     ...   AUXC
Contraction scheme used                  ... SEGMENTED
Do orthogonalization                     ... YES
All operator combinations                ... NO
Transpose (ia|K)                         ... NO
Integral generator used                  ... LIBINT
Starting integral generation + trafo... 
Half trafo (segmented) done. Total time = 42.5 sec. integrals= 15.9 sec trafo= 20.5 sec
Integral generation and half transformation done ( 42.5 sec)

Reading or making V^(-1/2)          ... done (  0.2 sec)
Sorting IAK integrals               ... done ( 10.9 sec)

SHARK RI integral transformation done. Total time = 53.8 sec.

Opening buffers                              ... done

Starting loop over batches of integrals:

Operator 0  - window                       ... ( 11- 32)x( 33-1950)
Operator 0  - Memory available             ...  2000 MB
Operator 0  - Memory needed per MO         ...  64.6 MB
Operator 0  - Number of orbitals per batch ... 3
Operator 0  - Number of batches            ... 1

OPERATOR  0   PASS   0:  MOs    11 ...   13 +   14 ...   16 +   17 ...   19 +   20 ...   22
                            +   23 ...   25 +   26 ...   28 +   29 ...   31 +   32 ...   32
  Reading integrals       ... ok
  Internal MO  13
Time spent in pair loops =    76.747 sec
Deleting buffers (Ka|jb) ...done

-----------------------------------------------
 RI-MP2 CORRELATION ENERGY:     -0.809826294 Eh
-----------------------------------------------


-------
TIMINGS
-------

Total time                :  140.573 sec
Integral trafo            :   53.863 sec ( 38.3%)
I/O of integrals          :    0.105 sec (  0.1%)
K(i,j) operators          :    3.023 sec (  2.2%)
T(i,j) pair energies      :    0.230 sec (  0.2%)
V**(-1/2)                 :    9.962 sec (  7.1%)


---------------------------------------
MP2 TOTAL ENERGY:     -721.666188677 Eh
---------------------------------------

Maximum memory used throughout the entire MP2-calculation: 672.2 MB


-------------------------------------------------------------------------------
                          DFT DISPERSION CORRECTION                            
                                                                               
                                DFTD4 V3.4.0                                   
-------------------------------------------------------------------------------
The REV-DSD-PBEP86-2021 functional is recognized
A user input s6-coefficient scaling factor has been recognized
A user input a1-coefficient scaling factor has been recognized
A user input s8-coefficient scaling factor has been recognized
A user input a2-coefficient scaling factor has been recognized
A user input s9-coefficient scaling factor has been recognized
Active option DFTDOPT                   ...         5   

-------------------------   ----------------
Dispersion correction           -0.008168268
-------------------------   ----------------


-------------------------   --------------------
FINAL SINGLE POINT ENERGY      -721.674356945103
-------------------------   --------------------



           ************************************************************
           *        Program running with 10 parallel MPI-processes    *
           *              working on a common directory               *
           ************************************************************

------------------------------------------------------------------------------
                              ORCA PROPERTY CALCULATIONS
------------------------------------------------------------------------------

GBWName                                 ... pg1_frag.gbw
Number of atoms                         ...     42
Number of basis functions               ...   1951
Max core memory                         ...   2000 MB

Electric properties:
Dipole moment                           ... YES
Quadrupole moment                       ...  NO
Static polarizability (Dipole/Dipole)   ...  NO
Static polarizability (Dipole/Quad.)    ...  NO
Static polarizability (Quad./Quad.)     ...  NO
Static polarizability (Velocity)        ...  NO

Atomic electric properties:
Dipole moment                           ...  NO
Quadrupole moment                       ...  NO
Static polarizability                   ...  NO

Choice of electric origin               ... Center of mass
Position of electric origin             ...     1.225282    -3.769604    -8.491571

General magnetic properties:
Magnetizability                         ...  NO

EPR properties:
g-Tensor (aka g-matrix)                 ...  NO
Zero-Field splitting spin-orbit         ...  NO
Zero-field splitting spin-spin          ...  NO
Hyperfine couplings                     ...  NO (   0 nuclei)
Quadrupole couplings                    ...  NO (   0 nuclei)
Contact density                         ...  NO (   0 nuclei)

NMR properties:
Chemical shifts                         ...  NO (   0 nuclei)
Spin-rotation constants                 ...  NO (   0 nuclei)
Spin-spin couplings                     ...  NO (   0 nuclei,    0 pairs)

Choice of magnetic origin               ... GIAO
Position of magnetic origin             ...     0.000000     0.000000     0.000000

Properties with geometric perturbations:
SCF Hessian                             ...  NO
IR spectrum                             ...  NO
VCD spectrum                            ...  NO
X-ray spectroscopy properties:
SCF XES/XAS/RIXS spectra                ...  NO


-------------
DIPOLE MOMENT
-------------

Method             : SCF
Type of density    : Electron Density
Multiplicity       :   1
Irrep              :   0
Energy             :  -720.8563623828953268 Eh
Relativity type    : 
Basis              : AO
                                X                 Y                 Z
Electronic contribution:      0.397630968       0.486671860       0.396458277
Nuclear contribution   :     -0.972160799      -0.498420406      -1.803788858
                        -----------------------------------------
Total Dipole Moment    :     -0.574529831      -0.011748547      -1.407330582
                        -----------------------------------------
Magnitude (a.u.)       :      1.520132205
Magnitude (Debye)      :      3.863868998



--------------------
Rotational spectrum 
--------------------
 
Rotational constants in cm-1:             0.136953             0.054672             0.052993 
Rotational constants in MHz :          4105.743203          1639.033451          1588.695275 

Dipole components along the rotational axes: 
x,y,z [a.u.] :     0.026759    -1.515025     0.121592 
x,y,z [Debye]:     0.068017    -3.850888     0.309063 

 

Dipole moment calculation done in   0.2 sec 

Maximum memory used throughout the entire PROP-calculation: 308.5 MB

--------------------------------
SUGGESTED CITATIONS FOR THIS RUN
--------------------------------

Below you find a list of papers that are relevant to this ORCA run
We neither can nor want to force you to cite these papers, but we appreciate if you do
You receive ORCA, which is the product of decades of hard work by many enthusiastic individuals, for free
The only thing we kindly ask in return is that you cite our papers,
We deeply appreciate it, if you show your appreciation for ORCA by not just citing the generic ORCA reference.

Please note that relegating all ORCA citations to the supporting information does *not* help us.
SI sections are not indexed - citations you put there will not count into any citation statistics
But we need these citations in order to attract the funding resources that allow us to do what we are doing

Therefore, if you are a happy ORCA user, please consider citing a few of the papers listed below in the main body of your paper

In addition to the list printed below, the program has created the file pg1_frag.bibtex that contains the list in bibtex format
You can import this file easily into all common literature databanks and citation aid programs


List of essential papers. We consider these as the minimum necessary citations

  1. Neese,F.
     Software update: the ORCA program system, version 5.0
     WIRES Comput. Molec. Sci., 2022 12(1)e1606
     doi.org/10.1002/wcms.1606

List of papers to cite with high priority. The work reported in these papers was absolutely
necessary for this run to complete.
Our perspective: the developers of density functionals and basis sets usually get cited in chemistry papers
Good! But without the algorithms to do something with them, the functionals or basis sets would not do anything.
Hence, in our opinion, the algorithm design and method developments papers are equally worthy of getting cited

  1. Neese,F.
     An improvement of the resolution of the identity approximation for the formation of the Coulomb matrix
     J. Comp. Chem., 2003 24(14)1740-1747
     doi.org/10.1002/jcc.10318
  2. Neese,F.; Wennmohs,F.; Hansen,A.; Becker,U.
     Efficient, approximate and parallel Hartree-Fock and hybrid DFT calculations. A 'chain-of-spheres' algorithm for the Hartree-Fock exchange
     Chem. Phys., 2009 356(1-3)98-109
     doi.org/10.1016/j.chemphys.2008.10.036
  3. Kossmann,S.; Neese,F.
     Efficient Structure Optimization with Second-Order Many-Body Perturbation Theory: The RIJCOSX-MP2 Method
     J. Theo. Comp. Chem., 2010 6 2325-2338
     doi.org/10.1021/ct100199k
  4. Garcia-Rates,M.; Neese,F.
     Effect of the Solute Cavity on the Solvation Energy and its Derivatives within the Framework of the Gaussian Charge Scheme
     J. Comput. Chem., 2020 41 922-939
     doi.org/10.1002/jcc.26139
  5. Helmich-Paris,B.; de Souza,B.; Neese,F.; Izsák,R.
     An improved chain of spheres for exchange algorithm
     J. Chem. Phys., 2021 155 104109
     doi.org/doi: 10.1063/5.0058766.
  6. Neese,F.
     The SHARK Integral Generation and Digestion System
     J. Comp. Chem., 2022  1-16
     doi.org/10.1002/jcc.26942
  7. Caldeweyher,E.; Bannwarth,C.; Grimme,S.
     Extension of the D3 dispersion coefficient model
     J. Chem. Phys., 2017 147 034112
     doi.org/10.1063/1.4993215
  8. Caldeweyher,E.; Ehlert,S.; Hansen,A.; Neugebauer,H.; Spicher,S.; Bannwarth,C.; Grimme,S.
     A generally applicable atomic-charge dependent London dispersion correction
     J. Chem. Phys., 2019 150 154122
     doi.org/10.1063/1.5090222
  9. Caldeweyher,E.; Mewes,J.; Ehlert,S.; Grimme,S.
     Extension and evaluation of the D4 London-dispersion model for periodic systems
     Phys. Chem. Chem. Phys., 2020 22(16)8499-8512
     doi.org/10.1039/D0CP00502A
 10. Wittmann,L.; Gordiy,I.; Friede,M.; Helmich-Paris,B.; Grimme,S.; Hansen,A.; Bursch,M.
     Extension of the D3 and D4 London Dispersion Corrections to the full Actinides Series
     Phys. Chem. Chem. Phys., 2024 26(32)21379-21394
     doi.org/https://doi.org/10.1039/D4CP01514B 

List of suggested additional citations. These are papers that are important in the 'surrounding' of 
of this run, or papers that preceded the highly important papers. If you like your results we are grateful for a citation.

  1. Izsak,R.; Neese,F.
     An overlap fitted chain of spheres exchange method
     J. Chem. Phys., 2011 135 144105
     doi.org/10.1063/1.3646921
  2. Izsak,R.; Hansen,A.; Neese,F.
     The resolution of identity and chain of spheres approximations for the LPNO-CCSD singles Fock term
     Molec. Phys., 2012 110 2413-2417
     doi.org/10.1080/00268976.2012.687466
  3. Neese,F.
     The ORCA program system
     WIRES Comput. Molec. Sci., 2012 2(1)73-78
     doi.org/10.1002/wcms.81
  4. Izsak,R.; Neese,F.; Klopper,W.
     Robust fitting techniques in the chain of spheres approximation to the Fock exchange: The role of the complementary space
     J. Chem. Phys., 2013 139 
     doi.org/10.1063/1.4819264
  5. Neese,F.
     Software update: the ORCA program system, version 4.0
     WIRES Comput. Molec. Sci., 2018 8(1)1-6
     doi.org/10.1002/wcms.1327
  6. Neese,F.; Wennmohs,F.; Becker,U.; Riplinger,C.
     The ORCA quantum chemistry program package
     J. Chem. Phys., 2020 152 Art. No. L224108
     doi.org/10.1063/5.0004608

List of optional additional citations

  1. Neese,F.
     Approximate second-order SCF convergence for spin unrestricted wavefunctions
     Chem. Phys. Lett., 2000 325(1-3)93-98
     doi.org/10.1016/s0009-2614(00)00662-x

Timings for individual modules:

Sum of individual times          ...      664.618 sec (=  11.077 min)
Startup calculation              ...       12.859 sec (=   0.214 min)   1.9 %
SCF iterations                   ...      507.840 sec (=   8.464 min)  76.4 %
Property calculations            ...        1.678 sec (=   0.028 min)   0.3 %
MP2 module                       ...      142.241 sec (=   2.371 min)  21.4 %
                             ****ORCA TERMINATED NORMALLY****
TOTAL RUN TIME: 0 days 0 hours 11 minutes 5 seconds 435 msec
