
                                 *****************
                                 * O   R   C   A *
                                 *****************

                                            #,                                       
                                            ###                                      
                                            ####                                     
                                            #####                                    
                                            ######                                   
                                           ########,                                 
                                     ,,################,,,,,                         
                               ,,#################################,,                 
                          ,,##########################################,,             
                       ,#########################################, ''#####,          
                    ,#############################################,,   '####,        
                  ,##################################################,,,,####,       
                ,###########''''           ''''###############################       
              ,#####''   ,,,,##########,,,,          '''####'''          '####       
            ,##' ,,,,###########################,,,                        '##       
           ' ,,###''''                  '''############,,,                           
         ,,##''                                '''############,,,,        ,,,,,,###''
      ,#''                                            '''#######################'''  
     '                                                          ''''####''''         
             ,#######,   #######,   ,#######,      ##                                
            ,#'     '#,  ##    ##  ,#'     '#,    #''#        ,####,   ,####,        
            ##       ##  ##   ,#'  ##            #'  '#       #'       #'  '#        
            ##       ##  #######   ##           ,######,      #####,   #    #        
            '#,     ,#'  ##    ##  '#,     ,#' ,#      #,     #,   #   #,  ,#        
             '#######'   ##     ##  '#######'  #'      '#     '####' # '####'        



                #########################################################
                #                        -***-                          #
                #          Department of theory and spectroscopy        #
                #                                                       #
                #                      Frank Neese                      #
                #                                                       #
                #     Directorship, Architecture, Infrastructure        #
                #                    SHARK, DRIVERS                     #
                #        Core code/Algorithms in most modules           #
                #                                                       #
                #        Max Planck Institute fuer Kohlenforschung      #
                #                Kaiser Wilhelm Platz 1                 #
                #                 D-45470 Muelheim/Ruhr                 #
                #                      Germany                          #
                #                                                       #
                #                  All rights reserved                  #
                #                        -***-                          #
                #########################################################


                         Program Version 6.0.1  -  RELEASE   -


 With contributions from (in alphabetic order):
[Max-Planck-Institut fuer Kohlenforschung]                               
  Daniel Aravena         : Magnetic Suceptibility                        
  Michael Atanasov       : Ab Initio Ligand Field Theory (pilot matlab implementation)
  Alexander A. Auer      : GIAO ZORA, VPT2 properties, NMR spectrum      
  Ute Becker             : All parallelization in ORCA, NUMFREQ, NUMCALC 
  Giovanni Bistoni       : ED, misc. LED, open-shell LED, HFLD           
  Martin Brehm           : Molecular dynamics                            
  Dmytro Bykov           : pre 5.0 version of the SCF Hessian            
  Marcos Casanova-Páez   : Triplet and SCS-CIS(D). UHF-(DLPNO)-IP/EA/STEOM-CCSD. UHF-CVS-IP/STEOM-CCSD   
  Vijay G. Chilkuri      : MRCI spin determinant printing, contributions to CSF-ICE 
  Pauline Colinet        : FMM embedding                                 
  Dipayan Datta          : RHF DLPNO-CCSD density                        
  Achintya Kumar Dutta   : EOM-CC, STEOM-CC                              
  Nicolas Foglia         : Exact transition moments, OPA infrastructure, MCD improvements    
  Dmitry Ganyushin       : Spin-Orbit,Spin-Spin,Magnetic field MRCI      
  Miquel Garcia-Rates    : C-PCM and meta-GGA Hessian, CCSD/C-PCM, Gaussian charge scheme 
  Tiago L. C. Gouveia    : GS-ROHF, GS-ROCIS                             
  Yang Guo               : DLPNO-NEVPT2, F12-NEVPT2, CIM, IAO-localization        
  Andreas Hansen         : Spin unrestricted coupled pair/coupled cluster methods 
  Ingolf Harden          : AUTO-CI MPn and infrastructure                
  Benjamin Helmich-Paris : MC-RPA, TRAH-(SCF,CASSCF), AVAS, COSX integrals, SCF dyn. polar. 
  Lee Huntington         : MR-EOM, pCC                                   
  Robert Izsak           : Overlap fitted RIJCOSX, COSX-SCS-MP3, EOM     
  Riya Kayal             : Wick's Theorem for AUTO-CI, AUTO-CI UHF-CCSDT 
  Emily Kempfer          : AUTO-CI, RHF CISDT and CCSDT                  
  Christian Kollmar      : KDIIS, OOCD, Brueckner-CCSD(T), CCSD density, CASPT2, CASPT2-K, improved NEVPT2 
  Axel Koslowski         : Symmetry handling                             
  Simone Kossmann        : meta-GGA functionals, TD-DFT gradient, OOMP2, (MP2 Hessian; deprecated post 5.0) 
  Lucas Lang             : DCDCAS                                        
  Marvin Lechner         : AUTO-CI (C++ implementation), FIC-MRCC        
  Spencer Leger          : CASSCF response                               
  Dagmar Lenk            : GEPOL surface, SMD, ORCA-2-JSON               
  Dimitrios Liakos       : Extrapolation schemes; Compound Job, initial MDCI parallelization 
  Dimitrios Manganas     : Further ROCIS development; embedding schemes. LFT, Crystal Embedding 
  Dimitrios Pantazis     : SARC Basis sets                               
  Anastasios Papadopoulos: AUTO-CI, single reference methods and gradients 
  Taras Petrenko         : pre 6.0 DFT Hessian and TD-DFT gradient, (ASA, deprecated), ECA, 1-Electron XAS/XES, NRVS 
  Peter Pinski           : DLPNO-MP2, DLPNO-MP2 Gradient                 
  Christoph Reimann      : Effective Core Potentials                     
  Marius Retegan         : Local ZFS, SOC                                
  Christoph Riplinger    : Optimizer, TS searches, QM/MM, DLPNO-CCSD(T), (RO)-DLPNO pert. Triples 
  Michael Roemelt        : Original ROCIS implementation                 
  Masaaki Saitow         : Open-shell DLPNO-CCSD energy and density      
  Barbara Sandhoefer     : DKH picture change effects                    
  Kantharuban Sivalingam : CASSCF convergence/infrastructure, NEVPT2 and variants, FIC-MRCI 
  Bernardo de Souza      : ESD, SOC TD-DFT                               
  Georgi L. Stoychev     : AutoAux, RI-MP2 NMR, DLPNO-MP2 response, X2C  
  Van Anh Tran           : RI-MP2 g-tensors                              
  Willem Van den Heuvel  : Paramagnetic NMR                              
  Zikuan Wang            : NOTCH, Electric field optimization            
  Frank Wennmohs         : Technical directorship and infrastructure     
  Hang Xu                : AUTO-CI-Response properties                   
                                                                         
[FACCTs GmbH]                                                            
  Markus Bursch, Miquel Garcia-Rates, Christoph Riplinger, Bernardo de Souza, Georgi L. Stoychev 
                                                                 
  APM, Basis sets (HGBS, AHGBS, def-TZVP (Ac-Lr), def2-XVPD (La-Lu)), CI-OPT, improved COSX, DLPNO-Multilevel,           
  DOCKER, DRACO, updates on ESD, GOAT, IRC, LR-CPCM, MBIS, meta-GGA TD-DFT gradient, ML-optimized integration grids, 
  MM, NACMEs, nearIR, NEB, NEB-TS, NL-DFT gradient (VV10), 2- and 3-layer-ONIOM, interface openCOSMO-RS, QMMM,   
  Crystal-QMMM, SF, symmetry and pop. for TD-DFT, r2SCAN hybrids, SOLVATOR                                   
                                                                         
[Other institutions]                                                     
  V. Asgeirsson          : NEB                                           
  Christoph Bannwarth    : sTDA-DFT, sTD-DFT, PBEh-3c, B97-3c, D3        
  Sebastian Ehlert       : rSCAN, r2SCAN, r2SCAN-3c, D4, dhf basis sets  
  Marvin Friede          : D4 for Fr, Ra, Ac-Lr                          
  Lars Goerigk           : TD-DFT with DH, B97 family of functionals     
  Stefan Grimme          : VdW corrections, initial TS optimization, DFT functionals, gCP, sTDA/sTD-DF 
  Waldemar Hujo          : DFT-NL                                        
  H. Jonsson             : NEB                                           
  Holger Kruse           : gCP                                           
  Marcel Mueller         : wB97X-3c, vDZP basis set                      
  Hagen Neugebauer       : wr2SCAN                                       
  Tobias Risthaus        : range-separated hybrid DFT                    
  Lukas Wittmann         : regularized MP2, r2SCAN double-hybrids, wr2SCAN        
                                                                         
We gratefully acknowledge several colleagues who have allowed us to      
interface, adapt or use parts of their codes:                            
  Ed Valeev, F. Pavosevic, A. Kumar             : LibInt (2-el integral package), F12 methods 
  Garnet Chan, S. Sharma, J. Yang, R. Olivares  : DMRG                   
  Ulf Ekstrom                                   : XCFun DFT Library      
  Mihaly Kallay                                 : mrcc  (arbitrary order and MRCC methods)
  Frank Weinhold                                : gennbo (NPA and NBO analysis)           
  Simon Mueller                                 : openCOSMO-RS                            
  Christopher J. Cramer and Donald G. Truhlar   : smd solvation model                     
  S Lehtola, MJT Oliveira, MAL Marques          : LibXC Library                           
  Liviu Ungur et al                             : ANISO software                          


 Your calculation uses the libint2 library for the computation of 2-el integrals
 For citations please refer to: http://libint.valeyev.net

 Your ORCA version has been built with support for libXC version: 6.2.2
 For citations please refer to: https://libxc.gitlab.io

 This ORCA versions uses:
   CBLAS   interface :  Fast vector & matrix operations
   LAPACKE interface :  Fast linear algebra routines
   SCALAPACK package :  Parallel linear algebra routines
   Shared memory     :  Shared parallel matrices
   BLAS/LAPACK       :  OpenBLAS 0.3.27  USE64BITINT DYNAMIC_ARCH NO_AFFINITY Haswell SINGLE_THREADED
        Core in use  :  Haswell
   Copyright (c) 2011-2014, The OpenBLAS Project


NOTE: MaxCore=2000 MB was set to SCF,MP2,MDCI,CIPSI,MRCI and CIS
      => If you want to overwrite this, your respective input block should be placed after the MaxCore statement
Your calculation utilizes the atom-pairwise dispersion correction
based on EEQ partial charges (D4)


================================================================================

----- Orbital basis set information -----
Your calculation utilizes the basis: def2-QZVPPD
   F. Weigend and R. Ahlrichs, Phys. Chem. Chem. Phys. 7, 3297 (2005).
   D. Rappoport and F. Furche, J. Chem. Phys. 133, 134105 (2010)
   D. Rappoport, J. Chem. Phys. 155, 124102 (2021).

----- AuxJ basis set information -----
Your calculation utilizes the auxiliary basis: def2/J
   F. Weigend, Phys. Chem. Chem. Phys. 8, 1057 (2006).

----- AuxC basis set information -----
Your calculation utilizes the auxiliary basis: def2-QZVPPD/C
   A. Hellweg, C. Hattig, S. Hofener and W. Klopper, Theor. Chem. Acc. 117, 587 (2007).
  A. Hellweg and D. Rappoport; Phys. Chem. Chem. Phys. 17, 1010 (2015).

================================================================================
                                        WARNINGS
                       Please study these warnings very carefully!
================================================================================


WARNING: No MP2 level density has been requested!
         To calculate MP2 level properties use
         %mp2 Density relaxed end
         or
         %mp2 Density unrelaxed end
         Otherwise for double-hybrid DFT only the energy is correct!

WARNING: The frozen-core approximation is turned on by default for 
         the MP2 part of double-hybrid DFT.

================================================================================
                                       INPUT FILE
================================================================================
NAME = hh-pg_cplx.inp
|  1> # ------------------------------------
|  2> # HH_POPG (complex); ion pair-pi
|  3> # ------------------------------------
|  4> ! SP revDSD-PBEP86-D4/2021 def2-QZVPPD RIJCOSX def2/J TightSCF CPCM
|  5> %basis
|  6>   basis   "def2-QZVPPD"
|  7>   aux     "def2/J"           # RI-J (for SCF/RIJCOSX)
|  8>   auxC    "def2-QZVPPD/C"    # required for RI-MP2 (AuxC)
|  9> end
| 10> %pal
| 11>     nprocs 10
| 12> end
| 13> %MaxCore 2000
| 14> %cpcm 
| 15>    epsilon 3.0 
| 16> end
| 17> *xyz -1 1
| 18> # POPG1
| 19> C     -2.31700     -4.05900       5.68500
| 20> C     -3.86700      0.00400       3.54800
| 21> O     -2.27400     -2.65800       5.82200
| 22> O     -1.10400     -0.54500       5.05800
| 23> O     -1.66400     -2.42300       3.33700
| 24> O     -3.54500     -1.04000       4.43500
| 25> P     -2.03600     -1.63800       4.58900
| 26> H     -2.49000     -4.51500       6.66000
| 27> H     -1.36900     -4.41300       5.28100
| 28> H     -3.12500     -4.33300       5.00700
| 29> H     -4.93100      0.23000       3.62200
| 30> H     -3.63100     -0.30000       2.52800
| 31> H     -3.28800      0.89100       3.80600
| 32> # His2
| 33> C      3.89600     -0.92200       0.44700
| 34> N      2.35200     -0.10800       2.26300
| 35> N      1.01500     -1.83600       2.56800
| 36> H      0.17500     -2.33200       2.89600
| 37> C      2.73200     -1.12300       1.41100
| 38> C      1.32000     -0.57400       2.93600
| 39> H      0.75100     -0.05800       3.70900
| 40> C      1.89600     -2.20300       1.58300
| 41> H      1.86000     -3.17500       1.09600
| 42> H      4.04500     -1.82900      -0.13900
| 43> H      4.80200     -0.70300       1.01300
| 44> H      3.67500     -0.08900      -0.22100
| 45> # His3
| 46> C     -0.81300     -0.83300      -2.74200
| 47> N     -0.96000      0.42200      -0.55100
| 48> N     -1.54200     -1.18000       0.85600
| 49> H     -1.69800     -1.66500       1.75700
| 50> C     -1.11600     -0.75500      -1.25000
| 51> C     -1.22300      0.12500       0.70700
| 52> H     -1.21700      0.81400       1.55500
| 53> C     -1.46600     -1.76200      -0.38100
| 54> H     -1.65100     -2.82200      -0.53800
| 55> H     -1.00100     -1.84600      -3.09900
| 56> H      0.23200     -0.57600      -2.91400
| 57> H     -1.45300     -0.13400      -3.28000
| 58> *
| 59> 
| 60> 
| 61> 
| 62>                          ****END OF INPUT****
================================================================================

                       ****************************
                       * Single Point Calculation *
                       ****************************

---------------------------------
CARTESIAN COORDINATES (ANGSTROEM)
---------------------------------
  C     -2.317000   -4.059000    5.685000
  C     -3.867000    0.004000    3.548000
  O     -2.274000   -2.658000    5.822000
  O     -1.104000   -0.545000    5.058000
  O     -1.664000   -2.423000    3.337000
  O     -3.545000   -1.040000    4.435000
  P     -2.036000   -1.638000    4.589000
  H     -2.490000   -4.515000    6.660000
  H     -1.369000   -4.413000    5.281000
  H     -3.125000   -4.333000    5.007000
  H     -4.931000    0.230000    3.622000
  H     -3.631000   -0.300000    2.528000
  H     -3.288000    0.891000    3.806000
  C      3.896000   -0.922000    0.447000
  N      2.352000   -0.108000    2.263000
  N      1.015000   -1.836000    2.568000
  H      0.175000   -2.332000    2.896000
  C      2.732000   -1.123000    1.411000
  C      1.320000   -0.574000    2.936000
  H      0.751000   -0.058000    3.709000
  C      1.896000   -2.203000    1.583000
  H      1.860000   -3.175000    1.096000
  H      4.045000   -1.829000   -0.139000
  H      4.802000   -0.703000    1.013000
  H      3.675000   -0.089000   -0.221000
  C     -0.813000   -0.833000   -2.742000
  N     -0.960000    0.422000   -0.551000
  N     -1.542000   -1.180000    0.856000
  H     -1.698000   -1.665000    1.757000
  C     -1.116000   -0.755000   -1.250000
  C     -1.223000    0.125000    0.707000
  H     -1.217000    0.814000    1.555000
  C     -1.466000   -1.762000   -0.381000
  H     -1.651000   -2.822000   -0.538000
  H     -1.001000   -1.846000   -3.099000
  H      0.232000   -0.576000   -2.914000
  H     -1.453000   -0.134000   -3.280000

----------------------------
CARTESIAN COORDINATES (A.U.)
----------------------------
  NO LB      ZA    FRAG     MASS         X           Y           Z
   0 C     6.0000    0    12.011   -4.378495   -7.670398   10.743093
   1 C     6.0000    0    12.011   -7.307571    0.007559    6.704748
   2 O     8.0000    0    15.999   -4.297237   -5.022892   11.001986
   3 O     8.0000    0    15.999   -2.086258   -1.029901    9.558235
   4 O     8.0000    0    15.999   -3.144504   -4.578806    6.306016
   5 O     8.0000    0    15.999   -6.699079   -1.965315    8.380935
   6 P    15.0000    0    30.974   -3.847482   -3.095371    8.671953
   7 H     1.0000    0     1.008   -4.705418   -8.532113   12.585576
   8 H     1.0000    0     1.008   -2.587035   -8.339361    9.979644
   9 H     1.0000    0     1.008   -5.905394   -8.188183    9.461859
  10 H     1.0000    0     1.008   -9.318240    0.434637    6.844588
  11 H     1.0000    0     1.008   -6.861596   -0.566918    4.777228
  12 H     1.0000    0     1.008   -6.213420    1.683746    7.192298
  13 C     6.0000    0    12.011    7.362373   -1.742327    0.844708
  14 N     7.0000    0    14.007    4.444636   -0.204090    4.276450
  15 N     7.0000    0    14.007    1.918072   -3.469537    4.852817
  16 H     1.0000    0     1.008    0.330702   -4.406841    5.472647
  17 C     6.0000    0    12.011    5.162732   -2.122162    2.666404
  18 C     6.0000    0    12.011    2.494438   -1.084703    5.548236
  19 H     1.0000    0     1.008    1.419184   -0.109604    7.008994
  20 C     6.0000    0    12.011    3.582921   -4.163067    2.991436
  21 H     1.0000    0     1.008    3.514891   -5.999880    2.071140
  22 H     1.0000    0     1.008    7.643942   -3.456309   -0.262672
  23 H     1.0000    0     1.008    9.074465   -1.328477    1.914293
  24 H     1.0000    0     1.008    6.944744   -0.168186   -0.417629
  25 C     6.0000    0    12.011   -1.536347   -1.574142   -5.181629
  26 N     7.0000    0    14.007   -1.814137    0.797464   -1.041239
  27 N     7.0000    0    14.007   -2.913958   -2.229877    1.617606
  28 H     1.0000    0     1.008   -3.208755   -3.146394    3.320249
  29 C     6.0000    0    12.011   -2.108934   -1.426743   -2.362158
  30 C     6.0000    0    12.011   -2.311135    0.236216    1.336036
  31 H     1.0000    0     1.008   -2.299797    1.538237    2.938524
  32 C     6.0000    0    12.011   -2.770339   -3.329697   -0.719986
  33 H     1.0000    0     1.008   -3.119938   -5.332807   -1.016673
  34 H     1.0000    0     1.008   -1.891616   -3.488434   -5.856261
  35 H     1.0000    0     1.008    0.438416   -1.088482   -5.506662
  36 H     1.0000    0     1.008   -2.745772   -0.253223   -6.198302

--------------------------------
INTERNAL COORDINATES (ANGSTROEM)
--------------------------------
 C      0   0   0     0.000000000000     0.00000000     0.00000000
 C      1   0   0     4.845331567602     0.00000000     0.00000000
 O      1   2   0     1.408339092690    38.60201870     0.00000000
 O      3   1   2     2.533251862725   144.54021102   277.64464939
 O      3   1   2     2.569542760882    90.23781034   312.81640299
 O      2   1   3     1.407262946290    13.27735499   309.37896750
 P      4   3   1     1.511037391993    37.38170295    69.84234307
 H      1   2   6     1.090178884404   133.98152015    11.67014089
 H      1   2   6     1.089603597645   112.78197841   216.38115925
 H      1   2   6     1.089781629502    72.49782544   112.14345759
 H      2   1   3     1.090251347167   117.13442591   251.80128406
 H      2   1   3     1.090188974444    96.29056593   136.17758677
 H      2   1   3     1.090217409511   114.07735115    21.56047753
 C      5   3   1     6.443500678979   131.29279632   253.63370678
 N     14   5   3     2.518806860400    39.01100165   309.44076876
 N     15  14   5     2.206032184715   102.59459064    13.23189230
 H     16  15  14     1.029174426421   156.38144136   196.67776806
 C     15  14   5     1.378596750323    31.51773898    14.29952155
 C     15  14   5     1.317235362416   137.24673461    12.58601671
 H     19  15  14     1.089745841928   127.15532119   180.54352318
 C     16  15  14     1.371522876222    73.79952823     0.00000000
 H     21  16  15     1.087772494596   122.64141337   180.57632048
 H     14   5   3     1.090066970420    99.51078378   119.70567555
 H     14   5   3     1.090482920545   122.06585700   359.51652654
 H     14   5   3     1.090391672749   106.13138208   233.34694415
 C     25  14   5     5.201069216998   111.25720299   317.61180265
 N     26  25  14     2.529251865671    63.85063019    91.36536353
 N     27  26  25     2.210153162113   101.95334882   262.56599267
 H     28  27  26     1.035066181459   158.98318170   163.82897220
 C     27  26  25     1.377775743726    31.04130942   259.01335960
 C     27  26  25     1.319068610801   136.55413763   264.23954178
 H     31  27  26     1.092639464782   126.66212574   178.27064496
 C     28  27  26     1.369185524317    73.64083566   358.62746036
 H     33  28  27     1.087416203668   122.36765171   178.72402025
 H     26  25  14     1.090395341149   116.12723357   319.24773325
 H     26  25  14     1.089797228846    38.31049308   230.56550191
 H     26  25  14     1.089791264417   130.86575662   163.07015097

---------------------------
INTERNAL COORDINATES (A.U.)
---------------------------
 C      0   0   0     0.000000000000     0.00000000     0.00000000
 C      1   0   0     9.156349690811     0.00000000     0.00000000
 O      1   2   0     2.661375188880    38.60201870     0.00000000
 O      3   1   2     4.787152248796   144.54021102   277.64464939
 O      3   1   2     4.855732107466    90.23781034   312.81640299
 O      2   1   3     2.659341566903    13.27735499   309.37896750
 P      4   3   1     2.855446848981    37.38170295    69.84234307
 H      1   2   6     2.060139528507   133.98152015    11.67014089
 H      1   2   6     2.059052394084   112.78197841   216.38115925
 H      1   2   6     2.059388825537    72.49782544   112.14345759
 H      2   1   3     2.060276463285   117.13442591   251.80128406
 H      2   1   3     2.060158595920    96.29056593   136.17758677
 H      2   1   3     2.060212330408   114.07735115    21.56047753
 C      5   3   1    12.176451627006   131.29279632   253.63370678
 N     14   5   3     4.759855150399    39.01100165   309.44076876
 N     15  14   5     4.168796671728   102.59459064    13.23189230
 H     16  15  14     1.944857809972   156.38144136   196.67776806
 C     15  14   5     2.605170307224    31.51773898    14.29952155
 C     15  14   5     2.489214088883   137.24673461    12.58601671
 H     19  15  14     2.059321196824   127.15532119   180.54352318
 C     16  15  14     2.591802622467    73.79952823     0.00000000
 H     21  16  15     2.055592110799   122.64141337   180.57632048
 H     14   5   3     2.059928041726    99.51078378   119.70567555
 H     14   5   3     2.060714073548   122.06585700   359.51652654
 H     14   5   3     2.060541640204   106.13138208   233.34694415
 C     25  14   5     9.828596423694   111.25720299   317.61180265
 N     26  25  14     4.779593349827    63.85063019    91.36536353
 N     27  26  25     4.176584190414   101.95334882   262.56599267
 H     28  27  26     1.955991613441   158.98318170   163.82897220
 C     27  26  25     2.603618829602    31.04130942   259.01335960
 C     27  26  25     2.492678426266   136.55413763   264.23954178
 H     31  27  26     2.064789351553   126.66212574   178.27064496
 C     28  27  26     2.587385667489    73.64083566   358.62746036
 H     33  28  27     2.054918818521   122.36765171   178.72402025
 H     26  25  14     2.060548572476   116.12723357   319.24773325
 H     26  25  14     2.059418304025    38.31049308   230.56550191
 H     26  25  14     2.059407032888   130.86575662   163.07015097

---------------------
BASIS SET INFORMATION
---------------------
There are 5 groups of distinct atoms

 Group   1 Type C   : 16s8p4d2f1g contracted to 8s4p4d2f1g pattern {82111111/5111/1111/11/1}
 Group   2 Type O   : 16s9p4d2f1g contracted to 8s5p4d2f1g pattern {82111111/51111/1111/11/1}
 Group   3 Type P   : 21s14p5d2f1g contracted to 10s6p5d2f1g pattern {10311111111/821111/11111/11/1}
 Group   4 Type H   : 7s4p2d1f contracted to 4s4p2d1f pattern {4111/1111/11/1}
 Group   5 Type N   : 16s8p4d2f1g contracted to 8s4p4d2f1g pattern {82111111/5111/1111/11/1}

Atom   0C    basis set group =>   1
Atom   1C    basis set group =>   1
Atom   2O    basis set group =>   2
Atom   3O    basis set group =>   2
Atom   4O    basis set group =>   2
Atom   5O    basis set group =>   2
Atom   6P    basis set group =>   3
Atom   7H    basis set group =>   4
Atom   8H    basis set group =>   4
Atom   9H    basis set group =>   4
Atom  10H    basis set group =>   4
Atom  11H    basis set group =>   4
Atom  12H    basis set group =>   4
Atom  13C    basis set group =>   1
Atom  14N    basis set group =>   5
Atom  15N    basis set group =>   5
Atom  16H    basis set group =>   4
Atom  17C    basis set group =>   1
Atom  18C    basis set group =>   1
Atom  19H    basis set group =>   4
Atom  20C    basis set group =>   1
Atom  21H    basis set group =>   4
Atom  22H    basis set group =>   4
Atom  23H    basis set group =>   4
Atom  24H    basis set group =>   4
Atom  25C    basis set group =>   1
Atom  26N    basis set group =>   5
Atom  27N    basis set group =>   5
Atom  28H    basis set group =>   4
Atom  29C    basis set group =>   1
Atom  30C    basis set group =>   1
Atom  31H    basis set group =>   4
Atom  32C    basis set group =>   1
Atom  33H    basis set group =>   4
Atom  34H    basis set group =>   4
Atom  35H    basis set group =>   4
Atom  36H    basis set group =>   4
---------------------------------
AUXILIARY/J BASIS SET INFORMATION
---------------------------------
There are 5 groups of distinct atoms

 Group   1 Type C   : 12s5p4d2f1g contracted to 6s4p3d1f1g pattern {711111/2111/211/2/1}
 Group   2 Type O   : 12s5p4d2f1g contracted to 6s4p3d1f1g pattern {711111/2111/211/2/1}
 Group   3 Type P   : 14s5p5d2f1g contracted to 8s4p3d1f1g pattern {71111111/2111/311/2/1}
 Group   4 Type H   : 5s2p1d contracted to 3s1p1d pattern {311/2/1}
 Group   5 Type N   : 12s5p4d2f1g contracted to 6s4p3d1f1g pattern {711111/2111/211/2/1}

Atom   0C    basis set group =>   1
Atom   1C    basis set group =>   1
Atom   2O    basis set group =>   2
Atom   3O    basis set group =>   2
Atom   4O    basis set group =>   2
Atom   5O    basis set group =>   2
Atom   6P    basis set group =>   3
Atom   7H    basis set group =>   4
Atom   8H    basis set group =>   4
Atom   9H    basis set group =>   4
Atom  10H    basis set group =>   4
Atom  11H    basis set group =>   4
Atom  12H    basis set group =>   4
Atom  13C    basis set group =>   1
Atom  14N    basis set group =>   5
Atom  15N    basis set group =>   5
Atom  16H    basis set group =>   4
Atom  17C    basis set group =>   1
Atom  18C    basis set group =>   1
Atom  19H    basis set group =>   4
Atom  20C    basis set group =>   1
Atom  21H    basis set group =>   4
Atom  22H    basis set group =>   4
Atom  23H    basis set group =>   4
Atom  24H    basis set group =>   4
Atom  25C    basis set group =>   1
Atom  26N    basis set group =>   5
Atom  27N    basis set group =>   5
Atom  28H    basis set group =>   4
Atom  29C    basis set group =>   1
Atom  30C    basis set group =>   1
Atom  31H    basis set group =>   4
Atom  32C    basis set group =>   1
Atom  33H    basis set group =>   4
Atom  34H    basis set group =>   4
Atom  35H    basis set group =>   4
Atom  36H    basis set group =>   4
---------------------------------
AUXILIARY/C BASIS SET INFORMATION
---------------------------------
There are 5 groups of distinct atoms

 Group   1 Type C   : 10s9p8d6f3g1h contracted to 10s9p8d6f3g1h pattern {1111111111/111111111/11111111/111111/111/1}
 Group   2 Type O   : 10s9p8d6f3g1h contracted to 10s9p8d6f3g1h pattern {1111111111/111111111/11111111/111111/111/1}
 Group   3 Type P   : 13s11p10d7f3g1h contracted to 13s11p10d7f3g1h pattern {1111111111111/11111111111/1111111111/1111111/111/1}
 Group   4 Type H   : 7s5p4d2f1g contracted to 7s5p4d2f1g pattern {1111111/11111/1111/11/1}
 Group   5 Type N   : 10s9p8d6f3g1h contracted to 10s9p8d6f3g1h pattern {1111111111/111111111/11111111/111111/111/1}

Atom   0C    basis set group =>   1
Atom   1C    basis set group =>   1
Atom   2O    basis set group =>   2
Atom   3O    basis set group =>   2
Atom   4O    basis set group =>   2
Atom   5O    basis set group =>   2
Atom   6P    basis set group =>   3
Atom   7H    basis set group =>   4
Atom   8H    basis set group =>   4
Atom   9H    basis set group =>   4
Atom  10H    basis set group =>   4
Atom  11H    basis set group =>   4
Atom  12H    basis set group =>   4
Atom  13C    basis set group =>   1
Atom  14N    basis set group =>   5
Atom  15N    basis set group =>   5
Atom  16H    basis set group =>   4
Atom  17C    basis set group =>   1
Atom  18C    basis set group =>   1
Atom  19H    basis set group =>   4
Atom  20C    basis set group =>   1
Atom  21H    basis set group =>   4
Atom  22H    basis set group =>   4
Atom  23H    basis set group =>   4
Atom  24H    basis set group =>   4
Atom  25C    basis set group =>   1
Atom  26N    basis set group =>   5
Atom  27N    basis set group =>   5
Atom  28H    basis set group =>   4
Atom  29C    basis set group =>   1
Atom  30C    basis set group =>   1
Atom  31H    basis set group =>   4
Atom  32C    basis set group =>   1
Atom  33H    basis set group =>   4
Atom  34H    basis set group =>   4
Atom  35H    basis set group =>   4
Atom  36H    basis set group =>   4


           ************************************************************
           *        Program running with 10 parallel MPI-processes    *
           *              working on a common directory               *
           ************************************************************
------------------------------------------------------------------------------
                             ORCA STARTUP CALCULATIONS
                           -- RI-GTO INTEGRALS CHOSEN --
------------------------------------------------------------------------------
------------------------------------------------------------------------------
                   ___                                                        
                  /   \      - P O W E R E D   B Y -                         
                 /     \                                                     
                 |  |  |   _    _      __       _____    __    __             
                 |  |  |  | |  | |    /  \     |  _  \  |  |  /  |          
                  \  \/   | |  | |   /    \    | | | |  |  | /  /          
                 / \  \   | |__| |  /  /\  \   | |_| |  |  |/  /          
                |  |  |   |  __  | /  /__\  \  |    /   |      \           
                |  |  |   | |  | | |   __   |  |    \   |  |\   \          
                \     /   | |  | | |  |  |  |  | |\  \  |  | \   \       
                 \___/    |_|  |_| |__|  |__|  |_| \__\ |__|  \__/        
                                                                              
                      - O R C A' S   B I G   F R I E N D -                    
                                      &                                       
                       - I N T E G R A L  F E E D E R -                       
                                                                              
 v1 FN, 2020, v2 2021, v3 2022-2024                                           
------------------------------------------------------------------------------


----------------------
SHARK INTEGRAL PACKAGE
----------------------

Number of atoms                             ...     37
Number of basis functions                   ...   1816
Number of shells                            ...    568
Maximum angular momentum                    ...      4
Integral batch strategy                     ... SHARK/LIBINT Hybrid
RI-J (if used) integral strategy            ... SPLIT-RIJ (Revised 2003 algorithm where possible)
Printlevel                                  ...      1
Contraction scheme used                     ... SEGMENTED contraction
Prescreening option                         ... SCHWARTZ
   Thresh                                   ... 2.500e-11
   Tcut                                     ... 2.500e-12
   Tpresel                                  ... 2.500e-12 
Coulomb Range Separation                    ... NOT USED
Exchange Range Separation                   ... NOT USED
Multipole approximations                    ... NOT USED
Finite Nucleus Model                        ... NOT USED
CABS basis                                  ... NOT available
Auxiliary Coulomb fitting basis             ... AVAILABLE
   # of basis functions in Aux-J            ...   1131
   # of shells in Aux-J                     ...    377
   Maximum angular momentum in Aux-J        ...      4
Auxiliary J/K fitting basis                 ... NOT available
Auxiliary Correlation fitting basis         ... AVAILABLE
   # of basis functions in Aux-C            ...   4179
   # of shells in Aux-C                     ...   1053
   Maximum angular momentum in Aux-C        ...      5
Auxiliary 'external' fitting basis          ... NOT available

Checking pre-screening integrals            ... done (  0.0 sec) Dimension = 568
Check shell pair data                       ... done (  0.0 sec)
Shell pair information
Shell pair cut-off parameter TPreSel        ...   2.5e-12
Total number of shell pairs                 ...    161596
Shell pairs after pre-screening             ...    108431
Total number of primitive shell pairs       ...    368540
Primitive shell pairs kept                  ...    179929
          la=0 lb=0:  16573 shell pairs
          la=1 lb=0:  24985 shell pairs
          la=1 lb=1:   9317 shell pairs
          la=2 lb=0:  16856 shell pairs
          la=2 lb=1:  12752 shell pairs
          la=2 lb=2:   4372 shell pairs
          la=3 lb=0:   7095 shell pairs
          la=3 lb=1:   5694 shell pairs
          la=3 lb=2:   3700 shell pairs
          la=3 lb=3:    768 shell pairs
          la=4 lb=0:   2443 shell pairs
          la=4 lb=1:   1972 shell pairs
          la=4 lb=2:   1292 shell pairs
          la=4 lb=3:    515 shell pairs
          la=4 lb=4:     97 shell pairs

Calculating one electron integrals          ... done (  0.2 sec)
Calculating RI/J V-Matrix + Cholesky decomp.... done (  0.0 sec)
Calculating RI/C V-Matrix + Cholesky decomp.... done (  0.7 sec)
Calculating Nuclear repulsion               ... done (  0.0 sec) ENN=   1677.567698635127 Eh

Diagonalization of the overlap matrix:
Smallest eigenvalue                        ... 1.296e-07
Time for diagonalization                   ...    0.510 sec
Threshold for overlap eigenvalues          ... 1.000e-07
Number of eigenvalues below threshold      ... 0

IMPORTANT:
Smallest eigenvalue of S below the DiffSThresh (1.000e-06) while
Thresh>1e-12 and/or TCut>1e-13! In order to avoid SCF convergence issues,
Thresh will be set to at least 1e-12 and TCut to at least 1e-13.
This can be turned off by adding %SCF DiffSThresh -1 END to the input.

Time for construction of square roots      ...    0.311 sec
Total time needed                          ...    0.845 sec

-------------------
DFT GRID GENERATION
-------------------

General Integration Accuracy     IntAcc      ... 4.388
Radial Grid Type                 RadialGrid  ... OptM3 with GC (2021)
Angular Grid (max. ang.)         AngularGrid ... 4 (Lebedev-302)
Angular grid pruning method      GridPruning ... 4 (adaptive)
Weight generation scheme         WeightScheme... mBecke (2022)
Basis function cutoff            BFCut       ... 1.0000e-11
Integration weight cutoff        WCut        ... 1.0000e-14
Partially contracted basis set               ... off
Rotationally invariant grid construction     ... off
Angular grids for H and He will be reduced by one unit
Diffuse basis detected: some atoms will have their outermost
                        angular grid increased by 1.

Total number of grid points                  ...   181012
Total number of batches                      ...     2848
Average number of points per batch           ...       63
Average number of grid points per atom       ...     4892

--------------------
COSX GRID GENERATION
--------------------

GRIDX 1
-------
General Integration Accuracy     IntAcc      ... 3.816
Radial Grid Type                 RadialGrid  ... OptM3 with GC (2021)
Angular Grid (max. ang.)         AngularGrid ... 1 (Lebedev-50)
Angular grid pruning method      GridPruning ... 4 (adaptive)
Weight generation scheme         WeightScheme... mBecke (2022)
Basis function cutoff            BFCut       ... 1.0000e-11
Integration weight cutoff        WCut        ... 1.0000e-14
Partially contracted basis set               ... on
Rotationally invariant grid construction     ... off
Angular grids for H and He will be reduced by one unit
Diffuse basis detected: some atoms will have their outermost
                        angular grid increased by 1.

Total number of grid points                  ...    23651
Total number of batches                      ...      203
Average number of points per batch           ...      116
Average number of grid points per atom       ...      639
UseSFitting                                  ... on

GRIDX 2
-------
General Integration Accuracy     IntAcc      ... 4.020
Radial Grid Type                 RadialGrid  ... OptM3 with GC (2021)
Angular Grid (max. ang.)         AngularGrid ... 2 (Lebedev-110)
Angular grid pruning method      GridPruning ... 4 (adaptive)
Weight generation scheme         WeightScheme... mBecke (2022)
Basis function cutoff            BFCut       ... 1.0000e-11
Integration weight cutoff        WCut        ... 1.0000e-14
Partially contracted basis set               ... on
Rotationally invariant grid construction     ... off
Angular grids for H and He will be reduced by one unit
Diffuse basis detected: some atoms will have their outermost
                        angular grid increased by 1.

Total number of grid points                  ...    53402
Total number of batches                      ...      436
Average number of points per batch           ...      122
Average number of grid points per atom       ...     1443
UseSFitting                                  ... on

GRIDX 3
-------
General Integration Accuracy     IntAcc      ... 4.338
Radial Grid Type                 RadialGrid  ... OptM3 with GC (2021)
Angular Grid (max. ang.)         AngularGrid ... 3 (Lebedev-194)
Angular grid pruning method      GridPruning ... 4 (adaptive)
Weight generation scheme         WeightScheme... mBecke (2022)
Basis function cutoff            BFCut       ... 1.0000e-11
Integration weight cutoff        WCut        ... 1.0000e-14
Partially contracted basis set               ... on
Rotationally invariant grid construction     ... off
Angular grids for H and He will be reduced by one unit
Diffuse basis detected: some atoms will have their outermost
                        angular grid increased by 1.

Total number of grid points                  ...   118646
Total number of batches                      ...      944
Average number of points per batch           ...      125
Average number of grid points per atom       ...     3207
UseSFitting                                  ... on
Initializing property integral containers    ... done (  0.0 sec)

SHARK setup successfully completed in  10.5 seconds

Maximum memory used throughout the entire STARTUP-calculation: 261.6 MB


           ************************************************************
           *        Program running with 10 parallel MPI-processes    *
           *              working on a common directory               *
           ************************************************************
-------------------------------------------------------------------------------
                                 ORCA GUESS
                   Start orbitals & Density for SCF / CASSCF
-------------------------------------------------------------------------------

------------
SCF SETTINGS
------------
Hamiltonian:
 Density Functional     Method          .... DFT(GTOs)
 Exchange Functional    Exchange        .... PBE
   PBE kappa parameter   XKappa         ....  0.804000
   PBE mue parameter    XMuePBE         ....  0.219520
 Correlation Functional Correlation     .... P86
 LDA part of GGA corr.  LDAOpt          .... VWN-5
 Gradients option       PostSCFGGA      .... off
 Hybrid DFT is turned on
   Fraction HF Exchange ScalHFX         ....  0.690000
   Scaling of DF-GGA-X  ScalDFX         ....  0.310000
   Scaling of DF-GGA-C  ScalDFC         ....  0.422400
   Scaling of DF-LDA-C  ScalLDAC        ....  0.422400
   Perturbative correction              ....  1.000000
 RI-approximation to the Coulomb term is turned on
   Number of AuxJ basis functions       .... 1131
   RIJ-COSX (HFX calculated with COS-X)).... on


General Settings:
 Integral files         IntName         .... hh-pg_cplx
 Hartree-Fock type      HFTyp           .... RHF
 Total Charge           Charge          ....   -1
 Multiplicity           Mult            ....    1
 Number of Electrons    NEL             ....  154
 Basis Dimension        Dim             .... 1816
 Nuclear Repulsion      ENuc            ....   1677.5676986351 Eh

Convergence Acceleration:
 AO-DIIS                CNVDIIS         .... on
   Start iteration      DIISMaxIt       ....    12
   Startup error        DIISStart       ....  0.200000
   # of expansion vecs  DIISMaxEq       ....     5
   Bias factor          DIISBfac        ....   1.050
   Max. coefficient     DIISMaxC        ....  10.000
 MO-DIIS                CNVKDIIS        .... off
 Trust-Rad. Augm. Hess. CNVTRAH         .... auto
   Auto Start mean grad. ratio tolernc. ....  1.125000
   Auto Start start iteration           ....    50
   Auto Start num. interpolation iter.  ....    10
   Max. Number of Micro iterations      ....    24
   Max. Number of Macro iterations      .... Maxiter - #DIIS iter
   Number of Davidson start vectors     ....     2
   Converg. threshold    (grad. norm)   ....   1.000e-05
   Grad. Scal. Fac. for Micro threshold ....   0.100
   Minimum threshold for Micro iter.    ....   1.000e-02
   NR start threshold (gradient norm)   ....   1.000e-04
   Initial trust radius                 ....   0.400
   Minimum AH scaling param. (alpha)    ....   1.000
   Maximum AH scaling param. (alpha)    .... 1000.000
   Quad. conv. algorithm                .... NR
   White noise on init. David. guess    .... on
   Maximum white noise                  ....   0.010
   Pseudo random numbers                .... off
   Inactive MOs                         .... canonical
   Orbital update algorithm             .... Taylor
   Preconditioner                       .... Diag
   Full preconditioner red. dimension   ....   250
 SOSCF                  CNVSOSCF        .... on
   Start iteration      SOSCFMaxIt      ....   150
   Startup grad/error   SOSCFStart      ....  0.003300
   Hessian update       SOSCFHessUp     .... L-BFGS
 Level Shifting         CNVShift        .... on
   Level shift para.    LevelShift      ....    0.2500
   Turn off err/grad.   ShiftErr        ....    0.0010
 Zerner damping         CNVZerner       .... off
 Static damping         CNVDamp         .... on
   Fraction old density DampFac         ....    0.7000
   Max. Damping (<1)    DampMax         ....    0.9800
   Min. Damping (>=0)   DampMin         ....    0.0000
   Turn off err/grad.   DampErr         ....    0.1000

SCF Procedure:
 Maximum # iterations   MaxIter         ....   125
 SCF integral mode      SCFMode         .... Direct
   Integral package                     .... SHARK and LIBINT hybrid scheme
 Reset frequency        DirectResetFreq ....    20
 Integral Threshold     Thresh          ....  1.000e-12 Eh
 Primitive CutOff       TCut            ....  1.000e-13 Eh

Convergence Tolerance:
 Convergence Check Mode ConvCheckMode   .... Total+1el-Energy
 Convergence forced     ConvForced      .... 0
 Energy Change          TolE            ....  1.000e-08 Eh
 1-El. energy change                    ....  1.000e-05 Eh
 Orbital Gradient       TolG            ....  1.000e-05
 Orbital Rotation angle TolX            ....  1.000e-05
 DIIS Error             TolErr          ....  5.000e-07

------------------------------
INITIAL GUESS: MODEL POTENTIAL
------------------------------
Loading Hartree-Fock densities                     ... done
Calculating cut-offs                               ... done
Initializing the effective Hamiltonian             ... done
Setting up the integral package (SHARK)            ... done
Starting the Coulomb interaction                   ... done (   1.6 sec)
Making the grid                                    ... done (   0.4 sec)
Mapping shells                                     ... done
Starting the XC term evaluation                    ... done (   1.5 sec)
  promolecular density results
     # of electrons  =    152.986641954
     EX              =   -137.830851366
     EC              =      0.066167351
     EX+EC           =   -137.764684015
Transforming the Hamiltonian                       ... done (   0.3 sec)
Diagonalizing the Hamiltonian                      ... done (   0.6 sec)
Back transforming the eigenvectors                 ... done (   0.1 sec)
Now organizing SCF variables                       ... done
                      ------------------
                      INITIAL GUESS DONE (   4.7 sec)
                      ------------------
             **** ENERGY FILE WAS UPDATED (hh-pg_cplx.en.tmp) ****
Finished Guess after   6.3 sec
Maximum memory used throughout the entire GUESS-calculation: 252.5 MB


           ************************************************************
           *        Program running with 10 parallel MPI-processes    *
           *              working on a common directory               *
           ************************************************************

-------------------------------------------------------------------------------------------
                                      ORCA LEAN-SCF
                              memory conserving SCF solver
-------------------------------------------------------------------------------------------

--------------------
CPCM SOLVATION MODEL
--------------------
CPCM parameters:
  Epsilon                                         ...       3.0000
  Refrac                                          ...       1.3300
  Rsolv                                           ...       1.3000
  Surface type                                    ... GAUSSIAN VDW
  Discretization scheme                           ... Constant charge density
    Threshold for H atoms                         ...       5.0000 (charges/Ang^2)
    Threshold for non-H atoms                     ...       5.0000 (charges/Ang^2)
  Epsilon function type                           ...         CPCM
Solvent:                                          ... CUSTOM
Radii:
  Scheme                                          ... Element-dependent radii
  Radius for C  used is    3.8550 Bohr (=   2.0400 Ang.)
  Radius for O  used is    3.4469 Bohr (=   1.8240 Ang.)
  Radius for P  used is    4.0818 Bohr (=   2.1600 Ang.)
  Radius for H  used is    2.4944 Bohr (=   1.3200 Ang.)
  Radius for N  used is    3.5149 Bohr (=   1.8600 Ang.)
Calculating surface                               ...        done! (  0.0s)
Cavity surface points                             ...         3417
Cavity Volume                                     ...    2301.9420
Cavity Surface-area                               ...    1250.9080
Calculating surface distance matrix               ...        done! (  0.1s)
Performing Cholesky decomposition & store         ...        done! (  0.3s)
Overall time for CPCM initialization              ...                 0.3s

----------------------------------------D-I-I-S--------------------------------------------
Iteration    Energy (Eh)           Delta-E    RMSDP     MaxDP     DIISErr   Damp  Time(sec)
-------------------------------------------------------------------------------------------
               ***  Starting incremental Fock matrix formation  ***
    1    -1249.4348571456375794     0.00e+00  1.13e-02  6.11e+00  3.78e-01  0.700  50.8
    2    -1249.7020672480621215    -2.67e-01  1.22e-02  6.27e+00  1.92e-01  0.700  30.2
                               ***Turning on AO-DIIS***
    3    -1249.8393184001597547    -1.37e-01  1.20e-02  4.99e+00  8.18e-02  0.700  28.5
    4    -1249.9224024503223518    -8.31e-02  3.45e-02  1.71e+01  5.85e-02  0.000  27.6
    5    -1250.1042638886538043    -1.82e-01  3.30e-03  2.38e+00  8.82e-03  0.000  28.6
    6    -1250.1046605702717898    -3.97e-04  5.57e-04  1.84e-01  3.82e-03  0.000  26.8
                              *** Initializing SOSCF ***
---------------------------------------S-O-S-C-F--------------------------------------
Iteration    Energy (Eh)           Delta-E    RMSDP     MaxDP     MaxGrad    Time(sec)
--------------------------------------------------------------------------------------
    7    -1250.1047353375420244    -7.48e-05  3.83e-04  1.63e-01  1.08e-03    26.5
               *** Restarting incremental Fock matrix formation ***
    8    -1250.1047572604252309    -2.19e-05  3.53e-02  2.27e+01  2.31e-04    52.2
    9    -1250.1047831252585638    -2.59e-05  1.26e-03  5.11e-01  6.12e-05    47.0
   10    -1250.1047836593925240    -5.34e-07  3.39e-04  1.33e-01  2.83e-05    42.5
   11    -1250.1047840610835920    -4.02e-07  3.43e-04  1.30e-01  6.17e-06    38.5
   12    -1250.1047841054128185    -4.43e-08  8.50e-05  2.54e-02  2.74e-06    38.3
   13    -1250.1047841396793956    -3.43e-08  5.71e-05  1.71e-02  9.25e-07    35.0
                  *** Gradient check signals convergence ***

               *****************************************************
               *                     SUCCESS                       *
               *           SCF CONVERGED AFTER  13 CYCLES          *
               *****************************************************

Recomputing exchange energy using gridx3       ... done (   86.501 sec)
Old exchange energy                            :    -97.166488427 Eh
New exchange energy                            :    -97.166400281 Eh
Exchange energy change after final integration :      0.000088146 Eh
Total energy after final integration           :  -1250.104695994 Eh
             **** ENERGY FILE WAS UPDATED (hh-pg_cplx.en.tmp) ****

----------------
TOTAL SCF ENERGY
----------------

Total Energy       :      -1250.10469599352268 Eh          -34017.07817 eV

Components:
Nuclear Repulsion  :       1677.56769863512727 Eh           45648.93783 eV
Electronic Energy  :      -2927.60685493405799 Eh          -79664.23257 eV
One Electron Energy:      -5071.07997186861212 Eh         -137991.10137 eV
Two Electron Energy:       2143.47311693455413 Eh           58326.86879 eV
CPCM Dielectric    :         -0.06562784074872 Eh              -1.78582 eV

Virial components:
Potential Energy   :      -2497.12311465648236 Eh          -67950.17447 eV
Kinetic Energy     :       1247.01841866295990 Eh           33933.09630 eV
Virial Ratio       :          2.00247492521712

DFT components:
N(Alpha)           :       76.999959921214 electrons
N(Beta)            :       76.999959921214 electrons
N(Total)           :      153.999919842428 electrons
E(X)               :      -43.499535666549 Eh       
E(C)               :       -2.456309062898 Eh       
E(XC)              :      -45.955844729446 Eh       

CPCM Solvation Model Properties:
Surface-charge          :          0.96048689022143
Corrected charge        :          1.00000000000000
Outlying charge corr.   :          0.00005637593846 Eh               0.00153 eV
Free-energy (cav+disp)  :  This term is not implemented in the current solvation scheme

---------------
SCF CONVERGENCE
---------------

  Last Energy change         ...    3.4267e-08  Tolerance :   1.0000e-08
  Last MAX-Density change    ...    1.7143e-02  Tolerance :   1.0000e-07
  Last RMS-Density change    ...    5.7139e-05  Tolerance :   5.0000e-09
  Last DIIS Error            ...    1.0773e-03  Tolerance :   5.0000e-07
  Last Orbital Gradient      ...    9.2508e-07  Tolerance :   1.0000e-05
  Last Orbital Rotation      ...    1.1065e-06  Tolerance :   1.0000e-05


----------------
ORBITAL ENERGIES
----------------

  NO   OCC          E(Eh)            E(eV) 
   0   2.0000     -78.881176     -2146.4659 
   1   2.0000     -19.972328      -543.4747 
   2   2.0000     -19.969246      -543.3908 
   3   2.0000     -19.908927      -541.7494 
   4   2.0000     -19.888470      -541.1928 
   5   2.0000     -15.071501      -410.1164 
   6   2.0000     -15.069842      -410.0712 
   7   2.0000     -15.016901      -408.6306 
   8   2.0000     -15.010261      -408.4500 
   9   2.0000     -10.829346      -294.6815 
  10   2.0000     -10.826055      -294.5919 
  11   2.0000     -10.823619      -294.5256 
  12   2.0000     -10.818940      -294.3983 
  13   2.0000     -10.796077      -293.7762 
  14   2.0000     -10.794962      -293.7458 
  15   2.0000     -10.793403      -293.7034 
  16   2.0000     -10.792092      -293.6678 
  17   2.0000     -10.774322      -293.1842 
  18   2.0000     -10.771108      -293.0968 
  19   2.0000      -7.160259      -194.8406 
  20   2.0000      -5.158328      -140.3652 
  21   2.0000      -5.157568      -140.3446 
  22   2.0000      -5.155263      -140.2818 
  23   2.0000      -1.241508       -33.7831 
  24   2.0000      -1.194713       -32.5098 
  25   2.0000      -1.171583       -31.8804 
  26   2.0000      -1.166717       -31.7480 
  27   2.0000      -1.124767       -30.6065 
  28   2.0000      -1.082263       -29.4499 
  29   2.0000      -1.007472       -27.4147 
  30   2.0000      -1.002723       -27.2855 
  31   2.0000      -0.888744       -24.1839 
  32   2.0000      -0.884089       -24.0573 
  33   2.0000      -0.830706       -22.6046 
  34   2.0000      -0.807701       -21.9787 
  35   2.0000      -0.804213       -21.8838 
  36   2.0000      -0.798956       -21.7407 
  37   2.0000      -0.693713       -18.8769 
  38   2.0000      -0.683838       -18.6082 
  39   2.0000      -0.652332       -17.7509 
  40   2.0000      -0.646769       -17.5995 
  41   2.0000      -0.642038       -17.4707 
  42   2.0000      -0.621520       -16.9124 
  43   2.0000      -0.613494       -16.6940 
  44   2.0000      -0.583193       -15.8695 
  45   2.0000      -0.548271       -14.9192 
  46   2.0000      -0.545181       -14.8351 
  47   2.0000      -0.528318       -14.3763 
  48   2.0000      -0.517528       -14.0827 
  49   2.0000      -0.511084       -13.9073 
  50   2.0000      -0.510656       -13.8957 
  51   2.0000      -0.507206       -13.8018 
  52   2.0000      -0.499283       -13.5862 
  53   2.0000      -0.496551       -13.5118 
  54   2.0000      -0.486020       -13.2253 
  55   2.0000      -0.481256       -13.0957 
  56   2.0000      -0.463836       -12.6216 
  57   2.0000      -0.454545       -12.3688 
  58   2.0000      -0.452033       -12.3005 
  59   2.0000      -0.444764       -12.1026 
  60   2.0000      -0.439226       -11.9520 
  61   2.0000      -0.434125       -11.8131 
  62   2.0000      -0.428207       -11.6521 
  63   2.0000      -0.415616       -11.3095 
  64   2.0000      -0.403654       -10.9840 
  65   2.0000      -0.380239       -10.3468 
  66   2.0000      -0.374203       -10.1826 
  67   2.0000      -0.368134       -10.0174 
  68   2.0000      -0.351230        -9.5575 
  69   2.0000      -0.337637        -9.1876 
  70   2.0000      -0.332580        -9.0500 
  71   2.0000      -0.328984        -8.9521 
  72   2.0000      -0.319142        -8.6843 
  73   2.0000      -0.312691        -8.5088 
  74   2.0000      -0.300372        -8.1735 
  75   2.0000      -0.245903        -6.6913 
  76   2.0000      -0.231499        -6.2994 
  77   0.0000       0.063451         1.7266 
  78   0.0000       0.070655         1.9226 
  79   0.0000       0.075989         2.0678 
  80   0.0000       0.080675         2.1953 
  81   0.0000       0.087376         2.3776 
  82   0.0000       0.091872         2.5000 
  83   0.0000       0.094843         2.5808 
  84   0.0000       0.102915         2.8005 
  85   0.0000       0.106861         2.9078 
  86   0.0000       0.108648         2.9565 
  87   0.0000       0.114253         3.1090 
*Only the first 10 virtual orbitals were printed.

                    ********************************
                    * MULLIKEN POPULATION ANALYSIS *
                    ********************************

-----------------------
MULLIKEN ATOMIC CHARGES
-----------------------
   0 C :   -0.135374
   1 C :   -0.102108
   2 O :   -0.482579
   3 O :   -0.801071
   4 O :   -0.674003
   5 O :   -0.523292
   6 P :    1.008868
   7 H :   -0.161761
   8 H :    0.285790
   9 H :    0.289698
  10 H :    0.009425
  11 H :    0.174663
  12 H :    0.213924
  13 C :   -0.601231
  14 N :   -0.769173
  15 N :   -0.260688
  16 H :    0.474794
  17 C :    0.801000
  18 C :    0.281061
  19 H :   -0.333195
  20 C :    0.001746
  21 H :    0.172535
  22 H :    0.226225
  23 H :   -0.001719
  24 H :   -0.011830
  25 C :   -0.773926
  26 N :   -0.728572
  27 N :   -0.068042
  28 H :    0.496112
  29 C :    0.518440
  30 C :    0.330060
  31 H :   -0.208075
  32 C :   -0.202781
  33 H :    0.198371
  34 H :    0.284137
  35 H :    0.082550
  36 H :   -0.009979
Sum of atomic charges:   -1.0000000

--------------------------------
MULLIKEN REDUCED ORBITAL CHARGES
--------------------------------
  0 C s       :     3.187235  s :     3.187235
      pz      :     1.056180  p :     2.801999
      px      :     1.167966
      py      :     0.577852
      dz2     :     0.002683  d :     0.129579
      dxz     :     0.026571
      dyz     :     0.029706
      dx2y2   :     0.029086
      dxy     :     0.041533
      f0      :     0.001905  f :     0.014854
      f+1     :     0.000775
      f-1     :     0.001790
      f+2     :     0.003153
      f-2     :     0.000050
      f+3     :     0.004864
      f-3     :     0.002318
      g0      :     0.000103  g :     0.001707
      g+1     :     0.000025
      g-1     :     0.000284
      g+2     :     0.000208
      g-2     :     0.000083
      g+3     :     0.000026
      g-3     :     0.000240
      g+4     :     0.000313
      g-4     :     0.000427

  1 C s       :     3.227536  s :     3.227536
      pz      :     0.910280  p :     2.742018
      px      :     1.015663
      py      :     0.816075
      dz2     :     0.051607  d :     0.116042
      dxz     :     0.008269
      dyz     :     0.017491
      dx2y2   :     0.010387
      dxy     :     0.028288
      f0      :     0.001781  f :     0.014818
      f+1     :     0.000875
      f-1     :     0.003969
      f+2     :     0.002169
      f-2     :     0.002463
      f+3     :     0.001778
      f-3     :     0.001783
      g0      :     0.000161  g :     0.001694
      g+1     :     0.000057
      g-1     :     0.000294
      g+2     :     0.000232
      g-2     :     0.000188
      g+3     :     0.000252
      g-3     :     0.000245
      g+4     :     0.000116
      g-4     :     0.000148

  2 O s       :     3.820207  s :     3.820207
      pz      :     1.626495  p :     4.655662
      px      :     1.806019
      py      :     1.223148
      dz2     :     0.000006  d :     0.002385
      dxz     :     0.001648
      dyz     :    -0.005922
      dx2y2   :     0.004035
      dxy     :     0.002617
      f0      :     0.000399  f :     0.004170
      f+1     :     0.000172
      f-1     :     0.000746
      f+2     :     0.000689
      f-2     :     0.000375
      f+3     :     0.000769
      f-3     :     0.001020
      g0      :     0.000015  g :     0.000156
      g+1     :     0.000002
      g-1     :     0.000031
      g+2     :     0.000029
      g-2     :     0.000011
      g+3     :     0.000008
      g-3     :     0.000017
      g+4     :     0.000023
      g-4     :     0.000020

  3 O s       :     3.891812  s :     3.891812
      pz      :     1.707745  p :     4.888427
      px      :     1.626825
      py      :     1.553858
      dz2     :     0.002099  d :     0.018533
      dxz     :     0.002771
      dyz     :     0.002983
      dx2y2   :     0.006347
      dxy     :     0.004334
      f0      :     0.000175  f :     0.002223
      f+1     :     0.000211
      f-1     :     0.000291
      f+2     :     0.000202
      f-2     :     0.000384
      f+3     :     0.000450
      f-3     :     0.000510
      g0      :     0.000007  g :     0.000075
      g+1     :     0.000004
      g-1     :     0.000006
      g+2     :     0.000001
      g-2     :     0.000011
      g+3     :     0.000010
      g-3     :     0.000008
      g+4     :     0.000012
      g-4     :     0.000014

  4 O s       :     3.805708  s :     3.805708
      pz      :     1.457873  p :     4.857130
      px      :     1.735048
      py      :     1.664210
      dz2     :     0.004240  d :     0.009044
      dxz     :     0.001528
      dyz     :     0.000548
      dx2y2   :     0.001781
      dxy     :     0.000948
      f0      :     0.000545  f :     0.002046
      f+1     :     0.000314
      f-1     :     0.000386
      f+2     :     0.000298
      f-2     :     0.000323
      f+3     :     0.000090
      f-3     :     0.000089
      g0      :     0.000011  g :     0.000075
      g+1     :     0.000007
      g-1     :     0.000018
      g+2     :     0.000013
      g-2     :     0.000013
      g+3     :     0.000006
      g-3     :     0.000006
      g+4     :     0.000001
      g-4     :     0.000001

  5 O s       :     3.861266  s :     3.861266
      pz      :     1.635687  p :     4.647822
      px      :     1.482460
      py      :     1.529675
      dz2     :     0.002562  d :     0.009920
      dxz     :    -0.001923
      dyz     :     0.005125
      dx2y2   :     0.004085
      dxy     :     0.000072
      f0      :     0.000553  f :     0.004128
      f+1     :     0.000274
      f-1     :     0.000690
      f+2     :     0.000566
      f-2     :     0.000777
      f+3     :     0.000692
      f-3     :     0.000577
      g0      :     0.000012  g :     0.000155
      g+1     :     0.000007
      g-1     :     0.000019
      g+2     :     0.000023
      g-2     :     0.000015
      g+3     :     0.000020
      g-3     :     0.000024
      g+4     :     0.000017
      g-4     :     0.000019

  6 P s       :     5.222198  s :     5.222198
      pz      :     2.618187  p :     7.830374
      px      :     2.631313
      py      :     2.580874
      dz2     :     0.175270  d :     0.752572
      dxz     :     0.142851
      dyz     :     0.162714
      dx2y2   :     0.149191
      dxy     :     0.122545
      f0      :     0.027597  f :     0.160139
      f+1     :     0.015648
      f-1     :     0.021903
      f+2     :     0.021216
      f-2     :     0.028660
      f+3     :     0.025100
      f-3     :     0.020015
      g0      :     0.002661  g :     0.025849
      g+1     :     0.001898
      g-1     :     0.003507
      g+2     :     0.002752
      g-2     :     0.004021
      g+3     :     0.002479
      g-3     :     0.002989
      g+4     :     0.002831
      g-4     :     0.002710

  7 H s       :     1.088381  s :     1.088381
      pz      :     0.044362  p :     0.069893
      px      :     0.010516
      py      :     0.015015
      dz2     :     0.000800  d :     0.003275
      dxz     :     0.001056
      dyz     :     0.000688
      dx2y2   :     0.000520
      dxy     :     0.000211
      f0      :     0.000043  f :     0.000212
      f+1     :     0.000061
      f-1     :     0.000023
      f+2     :     0.000046
      f-2     :     0.000030
      f+3     :     0.000004
      f-3     :     0.000006

  8 H s       :     0.663995  s :     0.663995
      pz      :     0.013676  p :     0.046242
      px      :     0.021626
      py      :     0.010940
      dz2     :     0.000740  d :     0.003746
      dxz     :     0.001009
      dyz     :     0.000305
      dx2y2   :     0.000967
      dxy     :     0.000726
      f0      :     0.000012  f :     0.000226
      f+1     :     0.000079
      f-1     :     0.000010
      f+2     :     0.000031
      f-2     :     0.000021
      f+3     :     0.000051
      f-3     :     0.000022

  9 H s       :     0.671970  s :     0.671970
      pz      :     0.016406  p :     0.034282
      px      :     0.011298
      py      :     0.006577
      dz2     :     0.001340  d :     0.003822
      dxz     :     0.000385
      dyz     :     0.000503
      dx2y2   :     0.000907
      dxy     :     0.000687
      f0      :     0.000036  f :     0.000228
      f+1     :     0.000080
      f-1     :     0.000012
      f+2     :     0.000023
      f-2     :     0.000021
      f+3     :     0.000040
      f-3     :     0.000015

 10 H s       :     0.939266  s :     0.939266
      pz      :     0.009406  p :     0.047928
      px      :     0.029861
      py      :     0.008661
      dz2     :     0.000208  d :     0.003170
      dxz     :     0.001107
      dyz     :     0.000183
      dx2y2   :     0.000528
      dxy     :     0.001143
      f0      :     0.000029  f :     0.000211
      f+1     :     0.000016
      f-1     :     0.000008
      f+2     :     0.000036
      f-2     :     0.000022
      f+3     :     0.000035
      f-3     :     0.000064

 11 H s       :     0.779396  s :     0.779396
      pz      :     0.012617  p :     0.042077
      px      :     0.015466
      py      :     0.013994
      dz2     :     0.000824  d :     0.003643
      dxz     :     0.001215
      dyz     :     0.001199
      dx2y2   :     0.000235
      dxy     :     0.000170
      f0      :     0.000053  f :     0.000222
      f+1     :     0.000063
      f-1     :     0.000055
      f+2     :     0.000031
      f-2     :     0.000017
      f+3     :    -0.000001
      f-3     :     0.000003

 12 H s       :     0.757688  s :     0.757688
      pz      :     0.004165  p :     0.024550
      px      :     0.015038
      py      :     0.005347
      dz2     :     0.000385  d :     0.003619
      dxz     :     0.000173
      dyz     :     0.001076
      dx2y2   :     0.001393
      dxy     :     0.000593
      f0      :     0.000017  f :     0.000219
      f+1     :     0.000011
      f-1     :     0.000033
      f+2     :     0.000028
      f-2     :     0.000019
      f+3     :     0.000024
      f-3     :     0.000087

 13 C s       :     3.265362  s :     3.265362
      pz      :     1.026029  p :     3.230274
      px      :     1.067915
      py      :     1.136330
      dz2     :    -0.007080  d :     0.097979
      dxz     :     0.031881
      dyz     :     0.043451
      dx2y2   :     0.030002
      dxy     :    -0.000275
      f0      :     0.000390  f :     0.007005
      f+1     :     0.001223
      f-1     :     0.000287
      f+2     :     0.002984
      f-2     :     0.001270
      f+3     :     0.000429
      f-3     :     0.000423
      g0      :     0.000074  g :     0.000612
      g+1     :     0.000086
      g-1     :     0.000009
      g+2     :     0.000114
      g-2     :     0.000039
      g+3     :     0.000111
      g-3     :     0.000107
      g+4     :     0.000035
      g-4     :     0.000036

 14 N s       :     3.973387  s :     3.973387
      pz      :     1.124330  p :     3.714906
      px      :     1.129575
      py      :     1.461001
      dz2     :     0.014552  d :     0.072111
      dxz     :     0.007535
      dyz     :     0.016651
      dx2y2   :     0.018830
      dxy     :     0.014543
      f0      :     0.000685  f :     0.008248
      f+1     :     0.001318
      f-1     :     0.001408
      f+2     :     0.001257
      f-2     :     0.001389
      f+3     :     0.001245
      f-3     :     0.000946
      g0      :     0.000033  g :     0.000521
      g+1     :     0.000037
      g-1     :     0.000043
      g+2     :     0.000066
      g-2     :     0.000072
      g+3     :     0.000106
      g-3     :     0.000093
      g+4     :     0.000036
      g-4     :     0.000035

 15 N s       :     3.670089  s :     3.670089
      pz      :     1.249412  p :     3.527634
      px      :     1.150362
      py      :     1.127860
      dz2     :     0.012415  d :     0.051968
      dxz     :    -0.000420
      dyz     :     0.018055
      dx2y2   :    -0.013717
      dxy     :     0.035636
      f0      :     0.001351  f :     0.010453
      f+1     :     0.001387
      f-1     :     0.001235
      f+2     :     0.001677
      f-2     :     0.001604
      f+3     :     0.001599
      f-3     :     0.001600
      g0      :     0.000038  g :     0.000544
      g+1     :     0.000070
      g-1     :     0.000046
      g+2     :     0.000069
      g-2     :     0.000052
      g+3     :     0.000061
      g-3     :     0.000079
      g+4     :     0.000067
      g-4     :     0.000062

 16 H s       :     0.528826  s :     0.528826
      pz      :     0.011423  p :    -0.012559
      px      :    -0.010548
      py      :    -0.013434
      dz2     :     0.001014  d :     0.008225
      dxz     :     0.002050
      dyz     :     0.000991
      dx2y2   :     0.002700
      dxy     :     0.001471
      f0      :     0.000053  f :     0.000714
      f+1     :     0.000127
      f-1     :     0.000043
      f+2     :     0.000080
      f-2     :     0.000118
      f+3     :     0.000207
      f-3     :     0.000085

 17 C s       :     3.061639  s :     3.061639
      pz      :     0.748007  p :     2.230443
      px      :     0.665346
      py      :     0.817090
      dz2     :    -0.029130  d :    -0.119822
      dxz     :    -0.003727
      dyz     :    -0.031868
      dx2y2   :    -0.016681
      dxy     :    -0.038415
      f0      :     0.002470  f :     0.024838
      f+1     :     0.002938
      f-1     :     0.003364
      f+2     :     0.003151
      f-2     :     0.005698
      f+3     :     0.002419
      f-3     :     0.004799
      g0      :     0.000144  g :     0.001901
      g+1     :     0.000139
      g-1     :     0.000232
      g+2     :     0.000209
      g-2     :     0.000239
      g+3     :     0.000292
      g-3     :     0.000252
      g+4     :     0.000172
      g-4     :     0.000221

 18 C s       :     3.094705  s :     3.094705
      pz      :     0.847670  p :     2.434803
      px      :     0.901671
      py      :     0.685461
      dz2     :     0.028009  d :     0.161179
      dxz     :     0.030181
      dyz     :     0.004918
      dx2y2   :     0.078910
      dxy     :     0.019162
      f0      :     0.001656  f :     0.025876
      f+1     :     0.004190
      f-1     :     0.003301
      f+2     :     0.004709
      f-2     :     0.003283
      f+3     :     0.004987
      f-3     :     0.003749
      g0      :     0.000215  g :     0.002376
      g+1     :     0.000190
      g-1     :     0.000150
      g+2     :     0.000330
      g-2     :     0.000180
      g+3     :     0.000393
      g-3     :     0.000292
      g+4     :     0.000339
      g-4     :     0.000288

 19 H s       :     1.222374  s :     1.222374
      pz      :     0.060802  p :     0.107385
      px      :     0.035597
      py      :     0.010987
      dz2     :     0.001092  d :     0.003253
      dxz     :     0.000451
      dyz     :     0.000591
      dx2y2   :     0.000625
      dxy     :     0.000494
      f0      :     0.000043  f :     0.000183
      f+1     :     0.000030
      f-1     :     0.000031
      f+2     :     0.000032
      f-2     :     0.000024
      f+3     :     0.000008
      f-3     :     0.000015

 20 C s       :     3.178433  s :     3.178433
      pz      :     0.901733  p :     2.614312
      px      :     0.964811
      py      :     0.747768
      dz2     :     0.039992  d :     0.183376
      dxz     :     0.022811
      dyz     :     0.015711
      dx2y2   :     0.070181
      dxy     :     0.034681
      f0      :     0.003533  f :     0.020418
      f+1     :     0.002373
      f-1     :     0.001811
      f+2     :     0.002869
      f-2     :     0.003782
      f+3     :     0.002340
      f-3     :     0.003710
      g0      :     0.000103  g :     0.001716
      g+1     :     0.000297
      g-1     :     0.000156
      g+2     :     0.000185
      g-2     :     0.000205
      g+3     :     0.000260
      g-3     :     0.000178
      g+4     :     0.000172
      g-4     :     0.000159

 21 H s       :     0.799861  s :     0.799861
      pz      :    -0.002065  p :     0.023697
      px      :     0.012489
      py      :     0.013273
      dz2     :     0.000756  d :     0.003672
      dxz     :     0.000404
      dyz     :     0.000797
      dx2y2   :     0.000530
      dxy     :     0.001185
      f0      :     0.000006  f :     0.000234
      f+1     :     0.000001
      f-1     :     0.000082
      f+2     :     0.000023
      f-2     :     0.000044
      f+3     :     0.000054
      f-3     :     0.000024

 22 H s       :     0.712053  s :     0.712053
      pz      :     0.020397  p :     0.057751
      px      :     0.005177
      py      :     0.032178
      dz2     :     0.000872  d :     0.003729
      dxz     :     0.000637
      dyz     :     0.000651
      dx2y2   :     0.000629
      dxy     :     0.000940
      f0      :     0.000007  f :     0.000241
      f+1     :     0.000008
      f-1     :     0.000086
      f+2     :     0.000017
      f-2     :     0.000061
      f+3     :     0.000040
      f-3     :     0.000023

 23 H s       :     0.937024  s :     0.937024
      pz      :     0.006519  p :     0.060532
      px      :     0.044094
      py      :     0.009919
      dz2     :     0.000808  d :     0.003922
      dxz     :     0.000760
      dyz     :     0.000597
      dx2y2   :     0.000838
      dxy     :     0.000919
      f0      :     0.000003  f :     0.000242
      f+1     :     0.000072
      f-1     :     0.000006
      f+2     :     0.000025
      f-2     :     0.000056
      f+3     :     0.000040
      f-3     :     0.000039

 24 H s       :     0.963484  s :     0.963484
      pz      :     0.020218  p :     0.044162
      px      :     0.006511
      py      :     0.017434
      dz2     :     0.001070  d :     0.003941
      dxz     :     0.000771
      dyz     :     0.000576
      dx2y2   :     0.000706
      dxy     :     0.000819
      f0      :     0.000015  f :     0.000243
      f+1     :     0.000015
      f-1     :     0.000081
      f+2     :     0.000032
      f-2     :     0.000051
      f+3     :     0.000021
      f-3     :     0.000029

 25 C s       :     3.253482  s :     3.253482
      pz      :     1.131592  p :     3.380516
      px      :     1.009771
      py      :     1.239153
      dz2     :     0.022464  d :     0.132211
      dxz     :     0.030807
      dyz     :     0.020530
      dx2y2   :     0.033729
      dxy     :     0.024682
      f0      :     0.002157  f :     0.007105
      f+1     :     0.001517
      f-1     :     0.001322
      f+2     :     0.000396
      f-2     :     0.000104
      f+3     :     0.000747
      f-3     :     0.000862
      g0      :     0.000167  g :     0.000611
      g+1     :     0.000129
      g-1     :     0.000097
      g+2     :     0.000031
      g-2     :     0.000033
      g+3     :     0.000045
      g-3     :     0.000048
      g+4     :     0.000032
      g-4     :     0.000029

 26 N s       :     3.953239  s :     3.953239
      pz      :     1.050589  p :     3.700884
      px      :     1.215946
      py      :     1.434349
      dz2     :     0.013142  d :     0.065691
      dxz     :     0.016876
      dyz     :     0.014366
      dx2y2   :     0.011774
      dxy     :     0.009534
      f0      :     0.001348  f :     0.008238
      f+1     :     0.001376
      f-1     :     0.001960
      f+2     :     0.001064
      f-2     :     0.000983
      f+3     :     0.000857
      f-3     :     0.000650
      g0      :     0.000115  g :     0.000521
      g+1     :     0.000071
      g-1     :     0.000095
      g+2     :     0.000068
      g-2     :     0.000032
      g+3     :     0.000038
      g-3     :     0.000043
      g+4     :     0.000028
      g-4     :     0.000030

 27 N s       :     3.474718  s :     3.474718
      pz      :     1.050942  p :     3.532451
      px      :     1.333051
      py      :     1.148458
      dz2     :    -0.014192  d :     0.049808
      dxz     :     0.011068
      dyz     :     0.028278
      dx2y2   :     0.010024
      dxy     :     0.014629
      f0      :     0.002250  f :     0.010523
      f+1     :     0.001423
      f-1     :     0.001902
      f+2     :     0.001508
      f-2     :     0.000857
      f+3     :     0.001349
      f-3     :     0.001234
      g0      :     0.000069  g :     0.000541
      g+1     :     0.000036
      g-1     :     0.000123
      g+2     :     0.000086
      g-2     :     0.000058
      g+3     :     0.000022
      g-3     :     0.000023
      g+4     :     0.000064
      g-4     :     0.000060

 28 H s       :     0.515111  s :     0.515111
      pz      :    -0.041206  p :    -0.020565
      px      :     0.007028
      py      :     0.013612
      dz2     :     0.002503  d :     0.008588
      dxz     :     0.002542
      dyz     :     0.001932
      dx2y2   :     0.000701
      dxy     :     0.000910
      f0      :     0.000210  f :     0.000755
      f+1     :     0.000140
      f-1     :     0.000145
      f+2     :     0.000104
      f-2     :     0.000124
      f+3     :     0.000017
      f-3     :     0.000014

 29 C s       :     3.106112  s :     3.106112
      pz      :     0.602342  p :     2.476509
      px      :     1.061439
      py      :     0.812729
      dz2     :     0.007093  d :    -0.127714
      dxz     :    -0.020075
      dyz     :    -0.117273
      dx2y2   :    -0.015866
[...]
 19 H      1.3332     1.0000    -0.3332     1.3372     1.3372    -0.0000
 20 C      5.9983     6.0000     0.0017     3.4497     3.4497     0.0000
 21 H      0.8275     1.0000     0.1725     1.0425     1.0425    -0.0000
 22 H      0.7738     1.0000     0.2262     1.1619     1.1619    -0.0000
 23 H      1.0017     1.0000    -0.0017     1.3204     1.3204    -0.0000
 24 H      1.0118     1.0000    -0.0118     1.1990     1.1990     0.0000
 25 C      6.7739     6.0000    -0.7739     3.7094     3.7094    -0.0000
 26 N      7.7286     7.0000    -0.7286     2.2944     2.2944     0.0000
 27 N      7.0680     7.0000    -0.0680     3.3701     3.3701     0.0000
 28 H      0.5039     1.0000     0.4961     0.4697     0.4697    -0.0000
 29 C      5.4816     6.0000     0.5184     3.1635     3.1635     0.0000
 30 C      5.6699     6.0000     0.3301     3.6677     3.6677    -0.0000
 31 H      1.2081     1.0000    -0.2081     1.4342     1.4342     0.0000
 32 C      6.2028     6.0000    -0.2028     3.7008     3.7008     0.0000
 33 H      0.8016     1.0000     0.1984     1.0929     1.0929    -0.0000
 34 H      0.7159     1.0000     0.2841     1.1360     1.1360    -0.0000
 35 H      0.9175     1.0000     0.0825     1.1812     1.1812     0.0000
 36 H      1.0100     1.0000    -0.0100     1.4590     1.4590    -0.0000

  Mayer bond orders larger than 0.100000
B(  0-C ,  2-O ) :   0.7632 B(  0-C ,  7-H ) :   1.2627 B(  0-C ,  8-H ) :   0.8362 
B(  0-C ,  9-H ) :   0.8475 B(  0-C , 13-C ) :   0.1086 B(  0-C , 20-C ) :   0.1432 
B(  0-C , 22-H ) :   0.1984 B(  0-C , 23-H ) :  -0.5010 B(  0-C , 25-C ) :  -0.4580 
B(  0-C , 35-H ) :   0.2567 B(  1-C ,  5-O ) :   0.7276 B(  1-C , 10-H ) :   1.1160 
B(  1-C , 11-H ) :   0.9577 B(  1-C , 12-H ) :   0.8879 B(  1-C , 13-C ) :   0.2430 
B(  1-C , 23-H ) :  -0.1442 B(  1-C , 25-C ) :  -0.1295 B(  2-O ,  6-P ) :   0.8553 
B(  3-O ,  6-P ) :   1.8577 B(  3-O , 19-H ) :  -0.1095 B(  4-O ,  6-P ) :   1.5089 
B(  4-O , 16-H ) :   0.1132 B(  4-O , 28-H ) :   0.2283 B(  5-O ,  6-P ) :   1.0044 
B(  7-H , 13-C ) :   1.0127 B(  7-H , 17-C ) :  -0.1723 B(  7-H , 20-C ) :  -0.1184 
B(  7-H , 22-H ) :  -0.3209 B(  7-H , 23-H ) :   0.2257 B(  7-H , 24-H ) :  -0.5049 
B(  7-H , 25-C ) :   1.0789 B(  7-H , 29-C ) :   0.2508 B(  7-H , 30-C ) :   0.1036 
B(  7-H , 32-C ) :  -0.1940 B(  7-H , 33-H ) :  -0.3161 B(  7-H , 35-H ) :  -0.8268 
B(  7-H , 36-H ) :  -0.1083 B(  8-H , 13-C ) :  -0.8651 B(  8-H , 17-C ) :   0.1441 
B(  8-H , 22-H ) :   0.1271 B(  8-H , 23-H ) :   0.1557 B(  8-H , 24-H ) :   0.3654 
B(  8-H , 25-C ) :  -0.6307 B(  8-H , 29-C ) :  -0.3001 B(  8-H , 33-H ) :   0.1670 
B(  8-H , 34-H ) :  -0.2504 B(  8-H , 35-H ) :   0.4540 B(  8-H , 36-H ) :   0.5718 
B(  9-H , 13-C ) :  -0.2332 B(  9-H , 24-H ) :   0.1097 B(  9-H , 32-C ) :   0.1675 
B(  9-H , 34-H ) :   0.1859 B(  9-H , 35-H ) :   0.1474 B(  9-H , 36-H ) :  -0.4909 
B( 10-H , 13-C ) :  -0.2443 B( 10-H , 21-H ) :   0.1076 B( 10-H , 23-H ) :   0.1061 
B( 10-H , 25-C ) :   0.2049 B( 10-H , 33-H ) :  -0.1200 B( 10-H , 35-H ) :  -0.1203 
B( 13-C , 14-N ) :  -0.1788 B( 13-C , 17-C ) :   0.5977 B( 13-C , 22-H ) :   1.0134 
B( 13-C , 23-H ) :   1.0935 B( 13-C , 24-H ) :   1.0957 B( 14-N , 17-C ) :   1.0226 
B( 14-N , 18-C ) :   1.3660 B( 14-N , 23-H ) :   0.1134 B( 15-N , 16-H ) :   0.6379 
B( 15-N , 17-C ) :  -0.1604 B( 15-N , 18-C ) :   1.4248 B( 15-N , 19-H ) :   0.2064 
B( 15-N , 20-C ) :   1.1844 B( 16-H , 18-C ) :  -0.1022 B( 17-C , 18-C ) :  -0.1391 
B( 17-C , 20-C ) :   1.5587 B( 18-C , 19-H ) :   1.4387 B( 19-H , 20-C ) :  -0.1831 
B( 20-C , 21-H ) :   0.8480 B( 25-C , 26-N ) :  -0.1744 B( 25-C , 29-C ) :   0.6098 
B( 25-C , 34-H ) :   0.9803 B( 25-C , 35-H ) :   1.0590 B( 25-C , 36-H ) :   1.1667 
B( 26-N , 29-C ) :   1.1707 B( 26-N , 30-C ) :   1.1922 B( 27-N , 28-H ) :   0.5788 
B( 27-N , 29-C ) :  -0.1123 B( 27-N , 30-C ) :   1.4567 B( 27-N , 31-H ) :   0.1672 
B( 27-N , 32-C ) :   1.1967 B( 27-N , 33-H ) :   0.1153 B( 29-C , 32-C ) :   1.5320 
B( 30-C , 31-H ) :   1.2053 B( 32-C , 33-H ) :   0.9383 

-------
TIMINGS
-------

Total SCF time: 0 days 0 hours 9 min 22 sec 

Total time                  ....     562.993 sec
Sum of individual times     ....     563.893 sec  (100.2%)

SCF preparation             ....       1.613 sec  (  0.3%)
Fock matrix formation       ....     538.259 sec  ( 95.6%)
  Startup                   ....       0.754 sec  (  0.1% of F)
  Split-RI-J                ....      25.468 sec  (  4.7% of F)
  Chain of spheres X        ....     425.582 sec  ( 79.1% of F)
  XC integration            ....      50.539 sec  (  9.4% of F)
    XC Preparation          ....       0.000 sec  (  0.0% of XC)
    Basis function eval.    ....       4.661 sec  (  9.2% of XC)
    Density eval.           ....      17.630 sec  ( 34.9% of XC)
    XC-Functional eval.     ....       0.100 sec  (  0.2% of XC)
    XC-Potential eval.      ....      18.905 sec  ( 37.4% of XC)
  CPCM terms                ....      34.117 sec  (  6.3% of F)
Diagonalization             ....       0.000 sec  (  0.0%)
Density matrix formation    ....       2.130 sec  (  0.4%)
Total Energy calculation    ....       1.051 sec  (  0.2%)
Population analysis         ....       0.807 sec  (  0.1%)
Orbital Transformation      ....       2.592 sec  (  0.5%)
Orbital Orthonormalization  ....       0.000 sec  (  0.0%)
DIIS solution               ....      11.462 sec  (  2.0%)
SOSCF solution              ....       5.544 sec  (  1.0%)
Finished LeanSCF after 563.8 sec

Maximum memory used throughout the entire LEANSCF-calculation: 412.1 MB


           ************************************************************
           *        Program running with 10 parallel MPI-processes    *
           *              working on a common directory               *
           ************************************************************

------------------------------------------------------------------------------
                                ORCA  MP2 
------------------------------------------------------------------------------

Freezing NCore=46 chemical core electrons

-------------
RI-MP2 ENERGY
-------------
Dimension of the orbital basis            ... 1816
Dimension of the AuxC basis               ... 4179
Memory devoted to MP2                     ... 2000 MB   
Data format for matrix containers         ... DOUBLE
Compression type for matrix containers    ... UNCOMPRESSED
Scaling for aa/bb pairs                   ...   5.660e-02
Scaling for ab pairs                      ...   5.935e-01
Overall scaling of the MP2 energy         ...   1.000e+00

-----------------------
SHARK RI TRANSFORMATION
-----------------------

Number of basis functions                ...   1816
Number of aux functions                  ...   4179
Number of operators                      ...      1
Generation of IJK                        ... NO
Generation of IAK                        ... YES
Generation of ABK                        ... NO
Orbital Range Operator  0:   23-  76 to   77-1815

Aux basis identifier                     ...   AUXC
Contraction scheme used                  ... SEGMENTED
Do orthogonalization                     ... YES
All operator combinations                ... NO
Transpose (ia|K)                         ... NO
Integral generator used                  ... LIBINT
Starting integral generation + trafo... 
Half trafo (segmented) done. Total time = 41.5 sec. integrals= 14.4 sec trafo= 26.1 sec
Integral generation and half transformation done ( 41.5 sec)

Reading or making V^(-1/2)          ... done (  0.3 sec)
Sorting IAK integrals               ... done ( 19.8 sec)

SHARK RI integral transformation done. Total time = 61.7 sec.

Opening buffers                              ... done

Starting loop over batches of integrals:

Operator 0  - window                       ... ( 23- 76)x( 77-1815)
Operator 0  - Memory available             ...  2000 MB
Operator 0  - Memory needed per MO         ...  55.4 MB
Operator 0  - Number of orbitals per batch ... 6
Operator 0  - Number of batches            ... 1

OPERATOR  0   PASS   0:  MOs    23 ...   28 +   29 ...   34 +   35 ...   40 +   41 ...   46
                            +   47 ...   52 +   53 ...   58 +   59 ...   64 +   65 ...   70
                            +   71 ...   76
  Reading integrals       ... ok
  Internal MO  25
  Internal MO  28
Time spent in pair loops =   315.446 sec
Deleting buffers (Ka|jb) ...done

-----------------------------------------------
 RI-MP2 CORRELATION ENERGY:     -1.982571210 Eh
-----------------------------------------------


-------
TIMINGS
-------

Total time                :  385.768 sec
Integral trafo            :   61.764 sec ( 16.0%)
I/O of integrals          :    0.392 sec (  0.1%)
K(i,j) operators          :   24.473 sec (  6.3%)
T(i,j) pair energies      :    1.107 sec (  0.3%)
V**(-1/2)                 :    8.557 sec (  2.2%)


---------------------------------------
MP2 TOTAL ENERGY:    -1252.087267203 Eh
---------------------------------------

Maximum memory used throughout the entire MP2-calculation: 744.7 MB


-------------------------------------------------------------------------------
                          DFT DISPERSION CORRECTION                            
                                                                               
                                DFTD4 V3.4.0                                   
-------------------------------------------------------------------------------
The REV-DSD-PBEP86-2021 functional is recognized
A user input s6-coefficient scaling factor has been recognized
A user input a1-coefficient scaling factor has been recognized
A user input s8-coefficient scaling factor has been recognized
A user input a2-coefficient scaling factor has been recognized
A user input s9-coefficient scaling factor has been recognized
Active option DFTDOPT                   ...         5   

-------------------------   ----------------
Dispersion correction           -0.027146545
-------------------------   ----------------


-------------------------   --------------------
FINAL SINGLE POINT ENERGY     -1252.114413748106
-------------------------   --------------------



           ************************************************************
           *        Program running with 10 parallel MPI-processes    *
           *              working on a common directory               *
           ************************************************************

------------------------------------------------------------------------------
                              ORCA PROPERTY CALCULATIONS
------------------------------------------------------------------------------

GBWName                                 ... hh-pg_cplx.gbw
Number of atoms                         ...     37
Number of basis functions               ...   1816
Max core memory                         ...   2000 MB

Electric properties:
Dipole moment                           ... YES
Quadrupole moment                       ...  NO
Static polarizability (Dipole/Dipole)   ...  NO
Static polarizability (Dipole/Quad.)    ...  NO
Static polarizability (Quad./Quad.)     ...  NO
Static polarizability (Velocity)        ...  NO

Atomic electric properties:
Dipole moment                           ...  NO
Quadrupole moment                       ...  NO
Static polarizability                   ...  NO

Choice of electric origin               ... Center of mass
Position of electric origin             ...    -1.373486    -2.401968     4.474692

General magnetic properties:
Magnetizability                         ...  NO

EPR properties:
g-Tensor (aka g-matrix)                 ...  NO
Zero-Field splitting spin-orbit         ...  NO
Zero-field splitting spin-spin          ...  NO
Hyperfine couplings                     ...  NO (   0 nuclei)
Quadrupole couplings                    ...  NO (   0 nuclei)
Contact density                         ...  NO (   0 nuclei)

NMR properties:
Chemical shifts                         ...  NO (   0 nuclei)
Spin-rotation constants                 ...  NO (   0 nuclei)
Spin-spin couplings                     ...  NO (   0 nuclei,    0 pairs)

Choice of magnetic origin               ... GIAO
Position of magnetic origin             ...     0.000000     0.000000     0.000000

Properties with geometric perturbations:
SCF Hessian                             ...  NO
IR spectrum                             ...  NO
VCD spectrum                            ...  NO
X-ray spectroscopy properties:
SCF XES/XAS/RIXS spectra                ...  NO


-------------
DIPOLE MOMENT
-------------

Method             : SCF
Type of density    : Electron Density
Multiplicity       :   1
Irrep              :   0
Energy             : -1250.1046959935226823 Eh
Relativity type    : 
Basis              : AO
                                X                 Y                 Z
Electronic contribution:     -4.814596107       0.861688979      13.379861521
Nuclear contribution   :      3.704066142      -3.412420939     -14.897614766
                        -----------------------------------------
Total Dipole Moment    :     -1.110529965      -2.550731960      -1.517753245
                        -----------------------------------------
Magnitude (a.u.)       :      3.169082714
Magnitude (Debye)      :      8.055168103



--------------------
Rotational spectrum 
--------------------
 
Rotational constants in cm-1:             0.014500             0.007160             0.005646 
Rotational constants in MHz :           434.693865           214.649010           169.266483 

Dipole components along the rotational axes: 
x,y,z [a.u.] :    -0.169026    -1.290809    -2.889347 
x,y,z [Debye]:    -0.429631    -3.280976    -7.344137 

 

Dipole moment calculation done in   0.2 sec 

Maximum memory used throughout the entire PROP-calculation: 269.6 MB

--------------------------------
SUGGESTED CITATIONS FOR THIS RUN
--------------------------------

Below you find a list of papers that are relevant to this ORCA run
We neither can nor want to force you to cite these papers, but we appreciate if you do
You receive ORCA, which is the product of decades of hard work by many enthusiastic individuals, for free
The only thing we kindly ask in return is that you cite our papers,
We deeply appreciate it, if you show your appreciation for ORCA by not just citing the generic ORCA reference.

Please note that relegating all ORCA citations to the supporting information does *not* help us.
SI sections are not indexed - citations you put there will not count into any citation statistics
But we need these citations in order to attract the funding resources that allow us to do what we are doing

Therefore, if you are a happy ORCA user, please consider citing a few of the papers listed below in the main body of your paper

In addition to the list printed below, the program has created the file hh-pg_cplx.bibtex that contains the list in bibtex format
You can import this file easily into all common literature databanks and citation aid programs


List of essential papers. We consider these as the minimum necessary citations

  1. Neese,F.
     Software update: the ORCA program system, version 5.0
     WIRES Comput. Molec. Sci., 2022 12(1)e1606
     doi.org/10.1002/wcms.1606

List of papers to cite with high priority. The work reported in these papers was absolutely
necessary for this run to complete.
Our perspective: the developers of density functionals and basis sets usually get cited in chemistry papers
Good! But without the algorithms to do something with them, the functionals or basis sets would not do anything.
Hence, in our opinion, the algorithm design and method developments papers are equally worthy of getting cited

  1. Neese,F.
     An improvement of the resolution of the identity approximation for the formation of the Coulomb matrix
     J. Comp. Chem., 2003 24(14)1740-1747
     doi.org/10.1002/jcc.10318
  2. Neese,F.; Wennmohs,F.; Hansen,A.; Becker,U.
     Efficient, approximate and parallel Hartree-Fock and hybrid DFT calculations. A 'chain-of-spheres' algorithm for the Hartree-Fock exchange
     Chem. Phys., 2009 356(1-3)98-109
     doi.org/10.1016/j.chemphys.2008.10.036
  3. Kossmann,S.; Neese,F.
     Efficient Structure Optimization with Second-Order Many-Body Perturbation Theory: The RIJCOSX-MP2 Method
     J. Theo. Comp. Chem., 2010 6 2325-2338
     doi.org/10.1021/ct100199k
  4. Garcia-Rates,M.; Neese,F.
     Effect of the Solute Cavity on the Solvation Energy and its Derivatives within the Framework of the Gaussian Charge Scheme
     J. Comput. Chem., 2020 41 922-939
     doi.org/10.1002/jcc.26139
  5. Helmich-Paris,B.; de Souza,B.; Neese,F.; Izsák,R.
     An improved chain of spheres for exchange algorithm
     J. Chem. Phys., 2021 155 104109
     doi.org/doi: 10.1063/5.0058766.
  6. Neese,F.
     The SHARK Integral Generation and Digestion System
     J. Comp. Chem., 2022  1-16
     doi.org/10.1002/jcc.26942
  7. Caldeweyher,E.; Bannwarth,C.; Grimme,S.
     Extension of the D3 dispersion coefficient model
     J. Chem. Phys., 2017 147 034112
     doi.org/10.1063/1.4993215
  8. Caldeweyher,E.; Ehlert,S.; Hansen,A.; Neugebauer,H.; Spicher,S.; Bannwarth,C.; Grimme,S.
     A generally applicable atomic-charge dependent London dispersion correction
     J. Chem. Phys., 2019 150 154122
     doi.org/10.1063/1.5090222
  9. Caldeweyher,E.; Mewes,J.; Ehlert,S.; Grimme,S.
     Extension and evaluation of the D4 London-dispersion model for periodic systems
     Phys. Chem. Chem. Phys., 2020 22(16)8499-8512
     doi.org/10.1039/D0CP00502A
 10. Wittmann,L.; Gordiy,I.; Friede,M.; Helmich-Paris,B.; Grimme,S.; Hansen,A.; Bursch,M.
     Extension of the D3 and D4 London Dispersion Corrections to the full Actinides Series
     Phys. Chem. Chem. Phys., 2024 26(32)21379-21394
     doi.org/https://doi.org/10.1039/D4CP01514B 

List of suggested additional citations. These are papers that are important in the 'surrounding' of 
of this run, or papers that preceded the highly important papers. If you like your results we are grateful for a citation.

  1. Izsak,R.; Neese,F.
     An overlap fitted chain of spheres exchange method
     J. Chem. Phys., 2011 135 144105
     doi.org/10.1063/1.3646921
  2. Izsak,R.; Hansen,A.; Neese,F.
     The resolution of identity and chain of spheres approximations for the LPNO-CCSD singles Fock term
     Molec. Phys., 2012 110 2413-2417
     doi.org/10.1080/00268976.2012.687466
  3. Neese,F.
     The ORCA program system
     WIRES Comput. Molec. Sci., 2012 2(1)73-78
     doi.org/10.1002/wcms.81
  4. Izsak,R.; Neese,F.; Klopper,W.
     Robust fitting techniques in the chain of spheres approximation to the Fock exchange: The role of the complementary space
     J. Chem. Phys., 2013 139 
     doi.org/10.1063/1.4819264
  5. Neese,F.
     Software update: the ORCA program system, version 4.0
     WIRES Comput. Molec. Sci., 2018 8(1)1-6
     doi.org/10.1002/wcms.1327
  6. Neese,F.; Wennmohs,F.; Becker,U.; Riplinger,C.
     The ORCA quantum chemistry program package
     J. Chem. Phys., 2020 152 Art. No. L224108
     doi.org/10.1063/5.0004608

List of optional additional citations

  1. Neese,F.
     Approximate second-order SCF convergence for spin unrestricted wavefunctions
     Chem. Phys. Lett., 2000 325(1-3)93-98
     doi.org/10.1016/s0009-2614(00)00662-x

Timings for individual modules:

Sum of individual times          ...      971.995 sec (=  16.200 min)
Startup calculation              ...       11.774 sec (=   0.196 min)   1.2 %
SCF iterations                   ...      571.022 sec (=   9.517 min)  58.7 %
Property calculations            ...        1.601 sec (=   0.027 min)   0.2 %
MP2 module                       ...      387.598 sec (=   6.460 min)  39.9 %
                             ****ORCA TERMINATED NORMALLY****
TOTAL RUN TIME: 0 days 0 hours 16 minutes 12 seconds 886 msec
