
                                 *****************
                                 * O   R   C   A *
                                 *****************

                                            #,                                       
                                            ###                                      
                                            ####                                     
                                            #####                                    
                                            ######                                   
                                           ########,                                 
                                     ,,################,,,,,                         
                               ,,#################################,,                 
                          ,,##########################################,,             
                       ,#########################################, ''#####,          
                    ,#############################################,,   '####,        
                  ,##################################################,,,,####,       
                ,###########''''           ''''###############################       
              ,#####''   ,,,,##########,,,,          '''####'''          '####       
            ,##' ,,,,###########################,,,                        '##       
           ' ,,###''''                  '''############,,,                           
         ,,##''                                '''############,,,,        ,,,,,,###''
      ,#''                                            '''#######################'''  
     '                                                          ''''####''''         
             ,#######,   #######,   ,#######,      ##                                
            ,#'     '#,  ##    ##  ,#'     '#,    #''#        ,####,   ,####,        
            ##       ##  ##   ,#'  ##            #'  '#       #'       #'  '#        
            ##       ##  #######   ##           ,######,      #####,   #    #        
            '#,     ,#'  ##    ##  '#,     ,#' ,#      #,     #,   #   #,  ,#        
             '#######'   ##     ##  '#######'  #'      '#     '####' # '####'        



                #########################################################
                #                        -***-                          #
                #          Department of theory and spectroscopy        #
                #                                                       #
                #                      Frank Neese                      #
                #                                                       #
                #     Directorship, Architecture, Infrastructure        #
                #                    SHARK, DRIVERS                     #
                #        Core code/Algorithms in most modules           #
                #                                                       #
                #        Max Planck Institute fuer Kohlenforschung      #
                #                Kaiser Wilhelm Platz 1                 #
                #                 D-45470 Muelheim/Ruhr                 #
                #                      Germany                          #
                #                                                       #
                #                  All rights reserved                  #
                #                        -***-                          #
                #########################################################


                         Program Version 6.0.1  -  RELEASE   -


 With contributions from (in alphabetic order):
[Max-Planck-Institut fuer Kohlenforschung]                               
  Daniel Aravena         : Magnetic Suceptibility                        
  Michael Atanasov       : Ab Initio Ligand Field Theory (pilot matlab implementation)
  Alexander A. Auer      : GIAO ZORA, VPT2 properties, NMR spectrum      
  Ute Becker             : All parallelization in ORCA, NUMFREQ, NUMCALC 
  Giovanni Bistoni       : ED, misc. LED, open-shell LED, HFLD           
  Martin Brehm           : Molecular dynamics                            
  Dmytro Bykov           : pre 5.0 version of the SCF Hessian            
  Marcos Casanova-Páez   : Triplet and SCS-CIS(D). UHF-(DLPNO)-IP/EA/STEOM-CCSD. UHF-CVS-IP/STEOM-CCSD   
  Vijay G. Chilkuri      : MRCI spin determinant printing, contributions to CSF-ICE 
  Pauline Colinet        : FMM embedding                                 
  Dipayan Datta          : RHF DLPNO-CCSD density                        
  Achintya Kumar Dutta   : EOM-CC, STEOM-CC                              
  Nicolas Foglia         : Exact transition moments, OPA infrastructure, MCD improvements    
  Dmitry Ganyushin       : Spin-Orbit,Spin-Spin,Magnetic field MRCI      
  Miquel Garcia-Rates    : C-PCM and meta-GGA Hessian, CCSD/C-PCM, Gaussian charge scheme 
  Tiago L. C. Gouveia    : GS-ROHF, GS-ROCIS                             
  Yang Guo               : DLPNO-NEVPT2, F12-NEVPT2, CIM, IAO-localization        
  Andreas Hansen         : Spin unrestricted coupled pair/coupled cluster methods 
  Ingolf Harden          : AUTO-CI MPn and infrastructure                
  Benjamin Helmich-Paris : MC-RPA, TRAH-(SCF,CASSCF), AVAS, COSX integrals, SCF dyn. polar. 
  Lee Huntington         : MR-EOM, pCC                                   
  Robert Izsak           : Overlap fitted RIJCOSX, COSX-SCS-MP3, EOM     
  Riya Kayal             : Wick's Theorem for AUTO-CI, AUTO-CI UHF-CCSDT 
  Emily Kempfer          : AUTO-CI, RHF CISDT and CCSDT                  
  Christian Kollmar      : KDIIS, OOCD, Brueckner-CCSD(T), CCSD density, CASPT2, CASPT2-K, improved NEVPT2 
  Axel Koslowski         : Symmetry handling                             
  Simone Kossmann        : meta-GGA functionals, TD-DFT gradient, OOMP2, (MP2 Hessian; deprecated post 5.0) 
  Lucas Lang             : DCDCAS                                        
  Marvin Lechner         : AUTO-CI (C++ implementation), FIC-MRCC        
  Spencer Leger          : CASSCF response                               
  Dagmar Lenk            : GEPOL surface, SMD, ORCA-2-JSON               
  Dimitrios Liakos       : Extrapolation schemes; Compound Job, initial MDCI parallelization 
  Dimitrios Manganas     : Further ROCIS development; embedding schemes. LFT, Crystal Embedding 
  Dimitrios Pantazis     : SARC Basis sets                               
  Anastasios Papadopoulos: AUTO-CI, single reference methods and gradients 
  Taras Petrenko         : pre 6.0 DFT Hessian and TD-DFT gradient, (ASA, deprecated), ECA, 1-Electron XAS/XES, NRVS 
  Peter Pinski           : DLPNO-MP2, DLPNO-MP2 Gradient                 
  Christoph Reimann      : Effective Core Potentials                     
  Marius Retegan         : Local ZFS, SOC                                
  Christoph Riplinger    : Optimizer, TS searches, QM/MM, DLPNO-CCSD(T), (RO)-DLPNO pert. Triples 
  Michael Roemelt        : Original ROCIS implementation                 
  Masaaki Saitow         : Open-shell DLPNO-CCSD energy and density      
  Barbara Sandhoefer     : DKH picture change effects                    
  Kantharuban Sivalingam : CASSCF convergence/infrastructure, NEVPT2 and variants, FIC-MRCI 
  Bernardo de Souza      : ESD, SOC TD-DFT                               
  Georgi L. Stoychev     : AutoAux, RI-MP2 NMR, DLPNO-MP2 response, X2C  
  Van Anh Tran           : RI-MP2 g-tensors                              
  Willem Van den Heuvel  : Paramagnetic NMR                              
  Zikuan Wang            : NOTCH, Electric field optimization            
  Frank Wennmohs         : Technical directorship and infrastructure     
  Hang Xu                : AUTO-CI-Response properties                   
                                                                         
[FACCTs GmbH]                                                            
  Markus Bursch, Miquel Garcia-Rates, Christoph Riplinger, Bernardo de Souza, Georgi L. Stoychev 
                                                                 
  APM, Basis sets (HGBS, AHGBS, def-TZVP (Ac-Lr), def2-XVPD (La-Lu)), CI-OPT, improved COSX, DLPNO-Multilevel,           
  DOCKER, DRACO, updates on ESD, GOAT, IRC, LR-CPCM, MBIS, meta-GGA TD-DFT gradient, ML-optimized integration grids, 
  MM, NACMEs, nearIR, NEB, NEB-TS, NL-DFT gradient (VV10), 2- and 3-layer-ONIOM, interface openCOSMO-RS, QMMM,   
  Crystal-QMMM, SF, symmetry and pop. for TD-DFT, r2SCAN hybrids, SOLVATOR                                   
                                                                         
[Other institutions]                                                     
  V. Asgeirsson          : NEB                                           
  Christoph Bannwarth    : sTDA-DFT, sTD-DFT, PBEh-3c, B97-3c, D3        
  Sebastian Ehlert       : rSCAN, r2SCAN, r2SCAN-3c, D4, dhf basis sets  
  Marvin Friede          : D4 for Fr, Ra, Ac-Lr                          
  Lars Goerigk           : TD-DFT with DH, B97 family of functionals     
  Stefan Grimme          : VdW corrections, initial TS optimization, DFT functionals, gCP, sTDA/sTD-DF 
  Waldemar Hujo          : DFT-NL                                        
  H. Jonsson             : NEB                                           
  Holger Kruse           : gCP                                           
  Marcel Mueller         : wB97X-3c, vDZP basis set                      
  Hagen Neugebauer       : wr2SCAN                                       
  Tobias Risthaus        : range-separated hybrid DFT                    
  Lukas Wittmann         : regularized MP2, r2SCAN double-hybrids, wr2SCAN        
                                                                         
We gratefully acknowledge several colleagues who have allowed us to      
interface, adapt or use parts of their codes:                            
  Ed Valeev, F. Pavosevic, A. Kumar             : LibInt (2-el integral package), F12 methods 
  Garnet Chan, S. Sharma, J. Yang, R. Olivares  : DMRG                   
  Ulf Ekstrom                                   : XCFun DFT Library      
  Mihaly Kallay                                 : mrcc  (arbitrary order and MRCC methods)
  Frank Weinhold                                : gennbo (NPA and NBO analysis)           
  Simon Mueller                                 : openCOSMO-RS                            
  Christopher J. Cramer and Donald G. Truhlar   : smd solvation model                     
  S Lehtola, MJT Oliveira, MAL Marques          : LibXC Library                           
  Liviu Ungur et al                             : ANISO software                          


 Your calculation uses the libint2 library for the computation of 2-el integrals
 For citations please refer to: http://libint.valeyev.net

 Your ORCA version has been built with support for libXC version: 6.2.2
 For citations please refer to: https://libxc.gitlab.io

 This ORCA versions uses:
   CBLAS   interface :  Fast vector & matrix operations
   LAPACKE interface :  Fast linear algebra routines
   SCALAPACK package :  Parallel linear algebra routines
   Shared memory     :  Shared parallel matrices
   BLAS/LAPACK       :  OpenBLAS 0.3.27  USE64BITINT DYNAMIC_ARCH NO_AFFINITY Haswell SINGLE_THREADED
        Core in use  :  Haswell
   Copyright (c) 2011-2014, The OpenBLAS Project


NOTE: MaxCore=2000 MB was set to SCF,MP2,MDCI,CIPSI,MRCI and CIS
      => If you want to overwrite this, your respective input block should be placed after the MaxCore statement
Your calculation utilizes the atom-pairwise dispersion correction
based on EEQ partial charges (D4)


================================================================================

----- Orbital basis set information -----
Your calculation utilizes the basis: def2-QZVPPD
   F. Weigend and R. Ahlrichs, Phys. Chem. Chem. Phys. 7, 3297 (2005).
   D. Rappoport and F. Furche, J. Chem. Phys. 133, 134105 (2010)
   D. Rappoport, J. Chem. Phys. 155, 124102 (2021).

----- AuxJ basis set information -----
Your calculation utilizes the auxiliary basis: def2/J
   F. Weigend, Phys. Chem. Chem. Phys. 8, 1057 (2006).

----- AuxC basis set information -----
Your calculation utilizes the auxiliary basis: def2-QZVPPD/C
   A. Hellweg, C. Hattig, S. Hofener and W. Klopper, Theor. Chem. Acc. 117, 587 (2007).
  A. Hellweg and D. Rappoport; Phys. Chem. Chem. Phys. 17, 1010 (2015).

================================================================================
                                        WARNINGS
                       Please study these warnings very carefully!
================================================================================


WARNING: No MP2 level density has been requested!
         To calculate MP2 level properties use
         %mp2 Density relaxed end
         or
         %mp2 Density unrelaxed end
         Otherwise for double-hybrid DFT only the energy is correct!

WARNING: The frozen-core approximation is turned on by default for 
         the MP2 part of double-hybrid DFT.

================================================================================
                                       INPUT FILE
================================================================================
NAME = pg1_frag.inp
|  1> # ------------------------------------
|  2> # HH_POPG (H2 & H3 ghosted); ion pair-pi
|  3> # ------------------------------------
|  4> ! SP revDSD-PBEP86-D4/2021 def2-QZVPPD RIJCOSX def2/J TightSCF CPCM
|  5> %basis
|  6>   basis   "def2-QZVPPD"
|  7>   aux     "def2/J"           # RI-J (for SCF/RIJCOSX)
|  8>   auxC    "def2-QZVPPD/C"    # required for RI-MP2 (AuxC)
|  9> end
| 10> %pal
| 11>     nprocs 10
| 12> end
| 13> %MaxCore 2000
| 14> %cpcm 
| 15>    epsilon 3 
| 16> end
| 17> *xyz -1 1
| 18> # POPG1
| 19> C     -2.31700     -4.05900       5.68500
| 20> C     -3.86700      0.00400       3.54800
| 21> O     -2.27400     -2.65800       5.82200
| 22> O     -1.10400     -0.54500       5.05800
| 23> O     -1.66400     -2.42300       3.33700
| 24> O     -3.54500     -1.04000       4.43500
| 25> P     -2.03600     -1.63800       4.58900
| 26> H     -2.49000     -4.51500       6.66000
| 27> H     -1.36900     -4.41300       5.28100
| 28> H     -3.12500     -4.33300       5.00700
| 29> H     -4.93100      0.23000       3.62200
| 30> H     -3.63100     -0.30000       2.52800
| 31> H     -3.28800      0.89100       3.80600
| 32> # His2 ghosted
| 33> C:     3.89600     -0.92200       0.44700
| 34> N:     2.35200     -0.10800       2.26300
| 35> N:     1.01500     -1.83600       2.56800
| 36> H:     0.17500     -2.33200       2.89600
| 37> C:     2.73200     -1.12300       1.41100
| 38> C:     1.32000     -0.57400       2.93600
| 39> H:     0.75100     -0.05800       3.70900
| 40> C:     1.89600     -2.20300       1.58300
| 41> H:     1.86000     -3.17500       1.09600
| 42> H:     4.04500     -1.82900      -0.13900
| 43> H:     4.80200     -0.70300       1.01300
| 44> H:     3.67500     -0.08900      -0.22100
| 45> # His3 ghosted
| 46> C:    -0.81300     -0.83300      -2.74200
| 47> N:    -0.96000      0.42200      -0.55100
| 48> N:    -1.54200     -1.18000       0.85600
| 49> H:    -1.69800     -1.66500       1.75700
| 50> C:    -1.11600     -0.75500      -1.25000
| 51> C:    -1.22300      0.12500       0.70700
| 52> H:    -1.21700      0.81400       1.55500
| 53> C:    -1.46600     -1.76200      -0.38100
| 54> H:    -1.65100     -2.82200      -0.53800
| 55> H:    -1.00100     -1.84600      -3.09900
| 56> H:     0.23200     -0.57600      -2.91400
| 57> H:    -1.45300     -0.13400      -3.28000
| 58> *
| 59> 
| 60> 
| 61> 
| 62>                          ****END OF INPUT****
================================================================================

                       ****************************
                       * Single Point Calculation *
                       ****************************

---------------------------------
CARTESIAN COORDINATES (ANGSTROEM)
---------------------------------
  C     -2.317000   -4.059000    5.685000
  C     -3.867000    0.004000    3.548000
  O     -2.274000   -2.658000    5.822000
  O     -1.104000   -0.545000    5.058000
  O     -1.664000   -2.423000    3.337000
  O     -3.545000   -1.040000    4.435000
  P     -2.036000   -1.638000    4.589000
  H     -2.490000   -4.515000    6.660000
  H     -1.369000   -4.413000    5.281000
  H     -3.125000   -4.333000    5.007000
  H     -4.931000    0.230000    3.622000
  H     -3.631000   -0.300000    2.528000
  H     -3.288000    0.891000    3.806000
  C      3.896000   -0.922000    0.447000
  N      2.352000   -0.108000    2.263000
  N      1.015000   -1.836000    2.568000
  H      0.175000   -2.332000    2.896000
  C      2.732000   -1.123000    1.411000
  C      1.320000   -0.574000    2.936000
  H      0.751000   -0.058000    3.709000
  C      1.896000   -2.203000    1.583000
  H      1.860000   -3.175000    1.096000
  H      4.045000   -1.829000   -0.139000
  H      4.802000   -0.703000    1.013000
  H      3.675000   -0.089000   -0.221000
  C     -0.813000   -0.833000   -2.742000
  N     -0.960000    0.422000   -0.551000
  N     -1.542000   -1.180000    0.856000
  H     -1.698000   -1.665000    1.757000
  C     -1.116000   -0.755000   -1.250000
  C     -1.223000    0.125000    0.707000
  H     -1.217000    0.814000    1.555000
  C     -1.466000   -1.762000   -0.381000
  H     -1.651000   -2.822000   -0.538000
  H     -1.001000   -1.846000   -3.099000
  H      0.232000   -0.576000   -2.914000
  H     -1.453000   -0.134000   -3.280000

----------------------------
CARTESIAN COORDINATES (A.U.)
----------------------------
  NO LB      ZA    FRAG     MASS         X           Y           Z
   0 C     6.0000    0    12.011   -4.378495   -7.670398   10.743093
   1 C     6.0000    0    12.011   -7.307571    0.007559    6.704748
   2 O     8.0000    0    15.999   -4.297237   -5.022892   11.001986
   3 O     8.0000    0    15.999   -2.086258   -1.029901    9.558235
   4 O     8.0000    0    15.999   -3.144504   -4.578806    6.306016
   5 O     8.0000    0    15.999   -6.699079   -1.965315    8.380935
   6 P    15.0000    0    30.974   -3.847482   -3.095371    8.671953
   7 H     1.0000    0     1.008   -4.705418   -8.532113   12.585576
   8 H     1.0000    0     1.008   -2.587035   -8.339361    9.979644
   9 H     1.0000    0     1.008   -5.905394   -8.188183    9.461859
  10 H     1.0000    0     1.008   -9.318240    0.434637    6.844588
  11 H     1.0000    0     1.008   -6.861596   -0.566918    4.777228
  12 H     1.0000    0     1.008   -6.213420    1.683746    7.192298
  13 C     0.0000    0     0.000    7.362373   -1.742327    0.844708
  14 N     0.0000    0     0.000    4.444636   -0.204090    4.276450
  15 N     0.0000    0     0.000    1.918072   -3.469537    4.852817
  16 H     0.0000    0     0.000    0.330702   -4.406841    5.472647
  17 C     0.0000    0     0.000    5.162732   -2.122162    2.666404
  18 C     0.0000    0     0.000    2.494438   -1.084703    5.548236
  19 H     0.0000    0     0.000    1.419184   -0.109604    7.008994
  20 C     0.0000    0     0.000    3.582921   -4.163067    2.991436
  21 H     0.0000    0     0.000    3.514891   -5.999880    2.071140
  22 H     0.0000    0     0.000    7.643942   -3.456309   -0.262672
  23 H     0.0000    0     0.000    9.074465   -1.328477    1.914293
  24 H     0.0000    0     0.000    6.944744   -0.168186   -0.417629
  25 C     0.0000    0     0.000   -1.536347   -1.574142   -5.181629
  26 N     0.0000    0     0.000   -1.814137    0.797464   -1.041239
  27 N     0.0000    0     0.000   -2.913958   -2.229877    1.617606
  28 H     0.0000    0     0.000   -3.208755   -3.146394    3.320249
  29 C     0.0000    0     0.000   -2.108934   -1.426743   -2.362158
  30 C     0.0000    0     0.000   -2.311135    0.236216    1.336036
  31 H     0.0000    0     0.000   -2.299797    1.538237    2.938524
  32 C     0.0000    0     0.000   -2.770339   -3.329697   -0.719986
  33 H     0.0000    0     0.000   -3.119938   -5.332807   -1.016673
  34 H     0.0000    0     0.000   -1.891616   -3.488434   -5.856261
  35 H     0.0000    0     0.000    0.438416   -1.088482   -5.506662
  36 H     0.0000    0     0.000   -2.745772   -0.253223   -6.198302

--------------------------------
INTERNAL COORDINATES (ANGSTROEM)
--------------------------------
 C      0   0   0     0.000000000000     0.00000000     0.00000000
 C      1   0   0     4.845331567602     0.00000000     0.00000000
 O      1   2   0     1.408339092690    38.60201870     0.00000000
 O      3   1   2     2.533251862725   144.54021102   277.64464939
 O      3   1   2     2.569542760882    90.23781034   312.81640299
 O      2   1   3     1.407262946290    13.27735499   309.37896750
 P      4   3   1     1.511037391993    37.38170295    69.84234307
 H      1   2   6     1.090178884404   133.98152015    11.67014089
 H      1   2   6     1.089603597645   112.78197841   216.38115925
 H      1   2   6     1.089781629502    72.49782544   112.14345759
 H      2   1   3     1.090251347167   117.13442591   251.80128406
 H      2   1   3     1.090188974444    96.29056593   136.17758677
 H      2   1   3     1.090217409511   114.07735115    21.56047753
 C      5   3   1     6.443500678979   131.29279632   253.63370678
 N     14   5   3     2.518806860400    39.01100165   309.44076876
 N     15  14   5     2.206032184715   102.59459064    13.23189230
 H     16  15  14     1.029174426421   156.38144136   196.67776806
 C     15  14   5     1.378596750323    31.51773898    14.29952155
 C     15  14   5     1.317235362416   137.24673461    12.58601671
 H     19  15  14     1.089745841928   127.15532119   180.54352318
 C     16  15  14     1.371522876222    73.79952823     0.00000000
 H     21  16  15     1.087772494596   122.64141337   180.57632048
 H     14   5   3     1.090066970420    99.51078378   119.70567555
 H     14   5   3     1.090482920545   122.06585700   359.51652654
 H     14   5   3     1.090391672749   106.13138208   233.34694415
 C     25  14   5     5.201069216998   111.25720299   317.61180265
 N     26  25  14     2.529251865671    63.85063019    91.36536353
 N     27  26  25     2.210153162113   101.95334882   262.56599267
 H     28  27  26     1.035066181459   158.98318170   163.82897220
 C     27  26  25     1.377775743726    31.04130942   259.01335960
 C     27  26  25     1.319068610801   136.55413763   264.23954178
 H     31  27  26     1.092639464782   126.66212574   178.27064496
 C     28  27  26     1.369185524317    73.64083566   358.62746036
 H     33  28  27     1.087416203668   122.36765171   178.72402025
 H     26  25  14     1.090395341149   116.12723357   319.24773325
 H     26  25  14     1.089797228846    38.31049308   230.56550191
 H     26  25  14     1.089791264417   130.86575662   163.07015097

---------------------------
INTERNAL COORDINATES (A.U.)
---------------------------
 C      0   0   0     0.000000000000     0.00000000     0.00000000
 C      1   0   0     9.156349690811     0.00000000     0.00000000
 O      1   2   0     2.661375188880    38.60201870     0.00000000
 O      3   1   2     4.787152248796   144.54021102   277.64464939
 O      3   1   2     4.855732107466    90.23781034   312.81640299
 O      2   1   3     2.659341566903    13.27735499   309.37896750
 P      4   3   1     2.855446848981    37.38170295    69.84234307
 H      1   2   6     2.060139528507   133.98152015    11.67014089
 H      1   2   6     2.059052394084   112.78197841   216.38115925
 H      1   2   6     2.059388825537    72.49782544   112.14345759
 H      2   1   3     2.060276463285   117.13442591   251.80128406
 H      2   1   3     2.060158595920    96.29056593   136.17758677
 H      2   1   3     2.060212330408   114.07735115    21.56047753
 C      5   3   1    12.176451627006   131.29279632   253.63370678
 N     14   5   3     4.759855150399    39.01100165   309.44076876
 N     15  14   5     4.168796671728   102.59459064    13.23189230
 H     16  15  14     1.944857809972   156.38144136   196.67776806
 C     15  14   5     2.605170307224    31.51773898    14.29952155
 C     15  14   5     2.489214088883   137.24673461    12.58601671
 H     19  15  14     2.059321196824   127.15532119   180.54352318
 C     16  15  14     2.591802622467    73.79952823     0.00000000
 H     21  16  15     2.055592110799   122.64141337   180.57632048
 H     14   5   3     2.059928041726    99.51078378   119.70567555
 H     14   5   3     2.060714073548   122.06585700   359.51652654
 H     14   5   3     2.060541640204   106.13138208   233.34694415
 C     25  14   5     9.828596423694   111.25720299   317.61180265
 N     26  25  14     4.779593349827    63.85063019    91.36536353
 N     27  26  25     4.176584190414   101.95334882   262.56599267
 H     28  27  26     1.955991613441   158.98318170   163.82897220
 C     27  26  25     2.603618829602    31.04130942   259.01335960
 C     27  26  25     2.492678426266   136.55413763   264.23954178
 H     31  27  26     2.064789351553   126.66212574   178.27064496
 C     28  27  26     2.587385667489    73.64083566   358.62746036
 H     33  28  27     2.054918818521   122.36765171   178.72402025
 H     26  25  14     2.060548572476   116.12723357   319.24773325
 H     26  25  14     2.059418304025    38.31049308   230.56550191
 H     26  25  14     2.059407032888   130.86575662   163.07015097

---------------------
BASIS SET INFORMATION
---------------------
There are 5 groups of distinct atoms

 Group   1 Type C   : 16s8p4d2f1g contracted to 8s4p4d2f1g pattern {82111111/5111/1111/11/1}
 Group   2 Type O   : 16s9p4d2f1g contracted to 8s5p4d2f1g pattern {82111111/51111/1111/11/1}
 Group   3 Type P   : 21s14p5d2f1g contracted to 10s6p5d2f1g pattern {10311111111/821111/11111/11/1}
 Group   4 Type H   : 7s4p2d1f contracted to 4s4p2d1f pattern {4111/1111/11/1}
 Group   5 Type N   : 16s8p4d2f1g contracted to 8s4p4d2f1g pattern {82111111/5111/1111/11/1}

Atom   0C    basis set group =>   1
Atom   1C    basis set group =>   1
Atom   2O    basis set group =>   2
Atom   3O    basis set group =>   2
Atom   4O    basis set group =>   2
Atom   5O    basis set group =>   2
Atom   6P    basis set group =>   3
Atom   7H    basis set group =>   4
Atom   8H    basis set group =>   4
Atom   9H    basis set group =>   4
Atom  10H    basis set group =>   4
Atom  11H    basis set group =>   4
Atom  12H    basis set group =>   4
Atom  13C    basis set group =>   1
Atom  14N    basis set group =>   5
Atom  15N    basis set group =>   5
Atom  16H    basis set group =>   4
Atom  17C    basis set group =>   1
Atom  18C    basis set group =>   1
Atom  19H    basis set group =>   4
Atom  20C    basis set group =>   1
Atom  21H    basis set group =>   4
Atom  22H    basis set group =>   4
Atom  23H    basis set group =>   4
Atom  24H    basis set group =>   4
Atom  25C    basis set group =>   1
Atom  26N    basis set group =>   5
Atom  27N    basis set group =>   5
Atom  28H    basis set group =>   4
Atom  29C    basis set group =>   1
Atom  30C    basis set group =>   1
Atom  31H    basis set group =>   4
Atom  32C    basis set group =>   1
Atom  33H    basis set group =>   4
Atom  34H    basis set group =>   4
Atom  35H    basis set group =>   4
Atom  36H    basis set group =>   4
---------------------------------
AUXILIARY/J BASIS SET INFORMATION
---------------------------------
There are 5 groups of distinct atoms

 Group   1 Type C   : 12s5p4d2f1g contracted to 6s4p3d1f1g pattern {711111/2111/211/2/1}
 Group   2 Type O   : 12s5p4d2f1g contracted to 6s4p3d1f1g pattern {711111/2111/211/2/1}
 Group   3 Type P   : 14s5p5d2f1g contracted to 8s4p3d1f1g pattern {71111111/2111/311/2/1}
 Group   4 Type H   : 5s2p1d contracted to 3s1p1d pattern {311/2/1}
 Group   5 Type N   : 12s5p4d2f1g contracted to 6s4p3d1f1g pattern {711111/2111/211/2/1}

Atom   0C    basis set group =>   1
Atom   1C    basis set group =>   1
Atom   2O    basis set group =>   2
Atom   3O    basis set group =>   2
Atom   4O    basis set group =>   2
Atom   5O    basis set group =>   2
Atom   6P    basis set group =>   3
Atom   7H    basis set group =>   4
Atom   8H    basis set group =>   4
Atom   9H    basis set group =>   4
Atom  10H    basis set group =>   4
Atom  11H    basis set group =>   4
Atom  12H    basis set group =>   4
Atom  13C    basis set group =>   1
Atom  14N    basis set group =>   5
Atom  15N    basis set group =>   5
Atom  16H    basis set group =>   4
Atom  17C    basis set group =>   1
Atom  18C    basis set group =>   1
Atom  19H    basis set group =>   4
Atom  20C    basis set group =>   1
Atom  21H    basis set group =>   4
Atom  22H    basis set group =>   4
Atom  23H    basis set group =>   4
Atom  24H    basis set group =>   4
Atom  25C    basis set group =>   1
Atom  26N    basis set group =>   5
Atom  27N    basis set group =>   5
Atom  28H    basis set group =>   4
Atom  29C    basis set group =>   1
Atom  30C    basis set group =>   1
Atom  31H    basis set group =>   4
Atom  32C    basis set group =>   1
Atom  33H    basis set group =>   4
Atom  34H    basis set group =>   4
Atom  35H    basis set group =>   4
Atom  36H    basis set group =>   4
---------------------------------
AUXILIARY/C BASIS SET INFORMATION
---------------------------------
There are 5 groups of distinct atoms

 Group   1 Type C   : 10s9p8d6f3g1h contracted to 10s9p8d6f3g1h pattern {1111111111/111111111/11111111/111111/111/1}
 Group   2 Type O   : 10s9p8d6f3g1h contracted to 10s9p8d6f3g1h pattern {1111111111/111111111/11111111/111111/111/1}
 Group   3 Type P   : 13s11p10d7f3g1h contracted to 13s11p10d7f3g1h pattern {1111111111111/11111111111/1111111111/1111111/111/1}
 Group   4 Type H   : 7s5p4d2f1g contracted to 7s5p4d2f1g pattern {1111111/11111/1111/11/1}
 Group   5 Type N   : 10s9p8d6f3g1h contracted to 10s9p8d6f3g1h pattern {1111111111/111111111/11111111/111111/111/1}

Atom   0C    basis set group =>   1
Atom   1C    basis set group =>   1
Atom   2O    basis set group =>   2
Atom   3O    basis set group =>   2
Atom   4O    basis set group =>   2
Atom   5O    basis set group =>   2
Atom   6P    basis set group =>   3
Atom   7H    basis set group =>   4
Atom   8H    basis set group =>   4
Atom   9H    basis set group =>   4
Atom  10H    basis set group =>   4
Atom  11H    basis set group =>   4
Atom  12H    basis set group =>   4
Atom  13C    basis set group =>   1
Atom  14N    basis set group =>   5
Atom  15N    basis set group =>   5
Atom  16H    basis set group =>   4
Atom  17C    basis set group =>   1
Atom  18C    basis set group =>   1
Atom  19H    basis set group =>   4
Atom  20C    basis set group =>   1
Atom  21H    basis set group =>   4
Atom  22H    basis set group =>   4
Atom  23H    basis set group =>   4
Atom  24H    basis set group =>   4
Atom  25C    basis set group =>   1
Atom  26N    basis set group =>   5
Atom  27N    basis set group =>   5
Atom  28H    basis set group =>   4
Atom  29C    basis set group =>   1
Atom  30C    basis set group =>   1
Atom  31H    basis set group =>   4
Atom  32C    basis set group =>   1
Atom  33H    basis set group =>   4
Atom  34H    basis set group =>   4
Atom  35H    basis set group =>   4
Atom  36H    basis set group =>   4


           ************************************************************
           *        Program running with 10 parallel MPI-processes    *
           *              working on a common directory               *
           ************************************************************
------------------------------------------------------------------------------
                             ORCA STARTUP CALCULATIONS
                           -- RI-GTO INTEGRALS CHOSEN --
------------------------------------------------------------------------------
------------------------------------------------------------------------------
                   ___                                                        
                  /   \      - P O W E R E D   B Y -                         
                 /     \                                                     
                 |  |  |   _    _      __       _____    __    __             
                 |  |  |  | |  | |    /  \     |  _  \  |  |  /  |          
                  \  \/   | |  | |   /    \    | | | |  |  | /  /          
                 / \  \   | |__| |  /  /\  \   | |_| |  |  |/  /          
                |  |  |   |  __  | /  /__\  \  |    /   |      \           
                |  |  |   | |  | | |   __   |  |    \   |  |\   \          
                \     /   | |  | | |  |  |  |  | |\  \  |  | \   \       
                 \___/    |_|  |_| |__|  |__|  |_| \__\ |__|  \__/        
                                                                              
                      - O R C A' S   B I G   F R I E N D -                    
                                      &                                       
                       - I N T E G R A L  F E E D E R -                       
                                                                              
 v1 FN, 2020, v2 2021, v3 2022-2024                                           
------------------------------------------------------------------------------


----------------------
SHARK INTEGRAL PACKAGE
----------------------

Number of atoms                             ...     37
Number of basis functions                   ...   1816
Number of shells                            ...    568
Maximum angular momentum                    ...      4
Integral batch strategy                     ... SHARK/LIBINT Hybrid
RI-J (if used) integral strategy            ... SPLIT-RIJ (Revised 2003 algorithm where possible)
Printlevel                                  ...      1
Contraction scheme used                     ... SEGMENTED contraction
Prescreening option                         ... SCHWARTZ
   Thresh                                   ... 2.500e-11
   Tcut                                     ... 2.500e-12
   Tpresel                                  ... 2.500e-12 
Coulomb Range Separation                    ... NOT USED
Exchange Range Separation                   ... NOT USED
Multipole approximations                    ... NOT USED
Finite Nucleus Model                        ... NOT USED
CABS basis                                  ... NOT available
Auxiliary Coulomb fitting basis             ... AVAILABLE
   # of basis functions in Aux-J            ...   1131
   # of shells in Aux-J                     ...    377
   Maximum angular momentum in Aux-J        ...      4
Auxiliary J/K fitting basis                 ... NOT available
Auxiliary Correlation fitting basis         ... AVAILABLE
   # of basis functions in Aux-C            ...   4179
   # of shells in Aux-C                     ...   1053
   Maximum angular momentum in Aux-C        ...      5
Auxiliary 'external' fitting basis          ... NOT available

Checking pre-screening integrals            ... done (  0.0 sec) Dimension = 568
Check shell pair data                       ... done (  0.0 sec)
Shell pair information
Shell pair cut-off parameter TPreSel        ...   2.5e-12
Total number of shell pairs                 ...    161596
Shell pairs after pre-screening             ...    108431
Total number of primitive shell pairs       ...    368540
Primitive shell pairs kept                  ...    179929
          la=0 lb=0:  16573 shell pairs
          la=1 lb=0:  24985 shell pairs
          la=1 lb=1:   9317 shell pairs
          la=2 lb=0:  16856 shell pairs
          la=2 lb=1:  12752 shell pairs
          la=2 lb=2:   4372 shell pairs
          la=3 lb=0:   7095 shell pairs
          la=3 lb=1:   5694 shell pairs
          la=3 lb=2:   3700 shell pairs
          la=3 lb=3:    768 shell pairs
          la=4 lb=0:   2443 shell pairs
          la=4 lb=1:   1972 shell pairs
          la=4 lb=2:   1292 shell pairs
          la=4 lb=3:    515 shell pairs
          la=4 lb=4:     97 shell pairs

Calculating one electron integrals          ... done (  0.2 sec)
Calculating RI/J V-Matrix + Cholesky decomp.... done (  0.0 sec)
Calculating RI/C V-Matrix + Cholesky decomp.... done (  0.7 sec)
Calculating Nuclear repulsion               ... done (  0.0 sec) ENN=    433.897964769280 Eh

Diagonalization of the overlap matrix:
Smallest eigenvalue                        ... 1.296e-07
Time for diagonalization                   ...    0.496 sec
Threshold for overlap eigenvalues          ... 1.000e-07
Number of eigenvalues below threshold      ... 0

IMPORTANT:
Smallest eigenvalue of S below the DiffSThresh (1.000e-06) while
Thresh>1e-12 and/or TCut>1e-13! In order to avoid SCF convergence issues,
Thresh will be set to at least 1e-12 and TCut to at least 1e-13.
This can be turned off by adding %SCF DiffSThresh -1 END to the input.

Time for construction of square roots      ...    0.310 sec
Total time needed                          ...    0.830 sec

-------------------
DFT GRID GENERATION
-------------------

General Integration Accuracy     IntAcc      ... 4.388
Radial Grid Type                 RadialGrid  ... OptM3 with GC (2021)
Angular Grid (max. ang.)         AngularGrid ... 4 (Lebedev-302)
Angular grid pruning method      GridPruning ... 4 (adaptive)
Weight generation scheme         WeightScheme... mBecke (2022)
Basis function cutoff            BFCut       ... 1.0000e-11
Integration weight cutoff        WCut        ... 1.0000e-14
Partially contracted basis set               ... off
Rotationally invariant grid construction     ... off
Angular grids for H and He will be reduced by one unit
Diffuse basis detected: some atoms will have their outermost
                        angular grid increased by 1.

Total number of grid points                  ...   181012
Total number of batches                      ...     2848
Average number of points per batch           ...       63
Average number of grid points per atom       ...     4892

--------------------
COSX GRID GENERATION
--------------------

GRIDX 1
-------
General Integration Accuracy     IntAcc      ... 3.816
Radial Grid Type                 RadialGrid  ... OptM3 with GC (2021)
Angular Grid (max. ang.)         AngularGrid ... 1 (Lebedev-50)
Angular grid pruning method      GridPruning ... 4 (adaptive)
Weight generation scheme         WeightScheme... mBecke (2022)
Basis function cutoff            BFCut       ... 1.0000e-11
Integration weight cutoff        WCut        ... 1.0000e-14
Partially contracted basis set               ... on
Rotationally invariant grid construction     ... off
Angular grids for H and He will be reduced by one unit
Diffuse basis detected: some atoms will have their outermost
                        angular grid increased by 1.

Total number of grid points                  ...    23651
Total number of batches                      ...      203
Average number of points per batch           ...      116
Average number of grid points per atom       ...      639
UseSFitting                                  ... on

GRIDX 2
-------
General Integration Accuracy     IntAcc      ... 4.020
Radial Grid Type                 RadialGrid  ... OptM3 with GC (2021)
Angular Grid (max. ang.)         AngularGrid ... 2 (Lebedev-110)
Angular grid pruning method      GridPruning ... 4 (adaptive)
Weight generation scheme         WeightScheme... mBecke (2022)
Basis function cutoff            BFCut       ... 1.0000e-11
Integration weight cutoff        WCut        ... 1.0000e-14
Partially contracted basis set               ... on
Rotationally invariant grid construction     ... off
Angular grids for H and He will be reduced by one unit
Diffuse basis detected: some atoms will have their outermost
                        angular grid increased by 1.

Total number of grid points                  ...    53402
Total number of batches                      ...      436
Average number of points per batch           ...      122
Average number of grid points per atom       ...     1443
UseSFitting                                  ... on

GRIDX 3
-------
General Integration Accuracy     IntAcc      ... 4.338
Radial Grid Type                 RadialGrid  ... OptM3 with GC (2021)
Angular Grid (max. ang.)         AngularGrid ... 3 (Lebedev-194)
Angular grid pruning method      GridPruning ... 4 (adaptive)
Weight generation scheme         WeightScheme... mBecke (2022)
Basis function cutoff            BFCut       ... 1.0000e-11
Integration weight cutoff        WCut        ... 1.0000e-14
Partially contracted basis set               ... on
Rotationally invariant grid construction     ... off
Angular grids for H and He will be reduced by one unit
Diffuse basis detected: some atoms will have their outermost
                        angular grid increased by 1.

Total number of grid points                  ...   118646
Total number of batches                      ...      944
Average number of points per batch           ...      125
Average number of grid points per atom       ...     3207
UseSFitting                                  ... on
Initializing property integral containers    ... done (  0.0 sec)

SHARK setup successfully completed in  10.7 seconds

Maximum memory used throughout the entire STARTUP-calculation: 261.6 MB


           ************************************************************
           *        Program running with 10 parallel MPI-processes    *
           *              working on a common directory               *
           ************************************************************
-------------------------------------------------------------------------------
                                 ORCA GUESS
                   Start orbitals & Density for SCF / CASSCF
-------------------------------------------------------------------------------

------------
SCF SETTINGS
------------
Hamiltonian:
 Density Functional     Method          .... DFT(GTOs)
 Exchange Functional    Exchange        .... PBE
   PBE kappa parameter   XKappa         ....  0.804000
   PBE mue parameter    XMuePBE         ....  0.219520
 Correlation Functional Correlation     .... P86
 LDA part of GGA corr.  LDAOpt          .... VWN-5
 Gradients option       PostSCFGGA      .... off
 Hybrid DFT is turned on
   Fraction HF Exchange ScalHFX         ....  0.690000
   Scaling of DF-GGA-X  ScalDFX         ....  0.310000
   Scaling of DF-GGA-C  ScalDFC         ....  0.422400
   Scaling of DF-LDA-C  ScalLDAC        ....  0.422400
   Perturbative correction              ....  1.000000
 RI-approximation to the Coulomb term is turned on
   Number of AuxJ basis functions       .... 1131
   RIJ-COSX (HFX calculated with COS-X)).... on


General Settings:
 Integral files         IntName         .... pg1_frag
 Hartree-Fock type      HFTyp           .... RHF
 Total Charge           Charge          ....   -1
 Multiplicity           Mult            ....    1
 Number of Electrons    NEL             ....   66
 Basis Dimension        Dim             .... 1816
 Nuclear Repulsion      ENuc            ....    433.8979647693 Eh

Convergence Acceleration:
 AO-DIIS                CNVDIIS         .... on
   Start iteration      DIISMaxIt       ....    12
   Startup error        DIISStart       ....  0.200000
   # of expansion vecs  DIISMaxEq       ....     5
   Bias factor          DIISBfac        ....   1.050
   Max. coefficient     DIISMaxC        ....  10.000
 MO-DIIS                CNVKDIIS        .... off
 Trust-Rad. Augm. Hess. CNVTRAH         .... auto
   Auto Start mean grad. ratio tolernc. ....  1.125000
   Auto Start start iteration           ....    50
   Auto Start num. interpolation iter.  ....    10
   Max. Number of Micro iterations      ....    24
   Max. Number of Macro iterations      .... Maxiter - #DIIS iter
   Number of Davidson start vectors     ....     2
   Converg. threshold    (grad. norm)   ....   1.000e-05
   Grad. Scal. Fac. for Micro threshold ....   0.100
   Minimum threshold for Micro iter.    ....   1.000e-02
   NR start threshold (gradient norm)   ....   1.000e-04
   Initial trust radius                 ....   0.400
   Minimum AH scaling param. (alpha)    ....   1.000
   Maximum AH scaling param. (alpha)    .... 1000.000
   Quad. conv. algorithm                .... NR
   White noise on init. David. guess    .... on
   Maximum white noise                  ....   0.010
   Pseudo random numbers                .... off
   Inactive MOs                         .... canonical
   Orbital update algorithm             .... Taylor
   Preconditioner                       .... Diag
   Full preconditioner red. dimension   ....   250
 SOSCF                  CNVSOSCF        .... on
   Start iteration      SOSCFMaxIt      ....   150
   Startup grad/error   SOSCFStart      ....  0.003300
   Hessian update       SOSCFHessUp     .... L-BFGS
 Level Shifting         CNVShift        .... on
   Level shift para.    LevelShift      ....    0.2500
   Turn off err/grad.   ShiftErr        ....    0.0010
 Zerner damping         CNVZerner       .... off
 Static damping         CNVDamp         .... on
   Fraction old density DampFac         ....    0.7000
   Max. Damping (<1)    DampMax         ....    0.9800
   Min. Damping (>=0)   DampMin         ....    0.0000
   Turn off err/grad.   DampErr         ....    0.1000

SCF Procedure:
 Maximum # iterations   MaxIter         ....   125
 SCF integral mode      SCFMode         .... Direct
   Integral package                     .... SHARK and LIBINT hybrid scheme
 Reset frequency        DirectResetFreq ....    20
 Integral Threshold     Thresh          ....  1.000e-12 Eh
 Primitive CutOff       TCut            ....  1.000e-13 Eh

Convergence Tolerance:
 Convergence Check Mode ConvCheckMode   .... Total+1el-Energy
 Convergence forced     ConvForced      .... 0
 Energy Change          TolE            ....  1.000e-08 Eh
 1-El. energy change                    ....  1.000e-05 Eh
 Orbital Gradient       TolG            ....  1.000e-05
 Orbital Rotation angle TolX            ....  1.000e-05
 DIIS Error             TolErr          ....  5.000e-07

------------------------------
INITIAL GUESS: MODEL POTENTIAL
------------------------------
Loading Hartree-Fock densities                     ... done
Calculating cut-offs                               ... done
Initializing the effective Hamiltonian             ... done
Setting up the integral package (SHARK)            ... done
Starting the Coulomb interaction                   ... done (   0.7 sec)
Making the grid                                    ... done (   0.4 sec)
Mapping shells                                     ... done
Starting the XC term evaluation                    ... done (   1.3 sec)
  promolecular density results
     # of electrons  =     64.994335030
     EX              =    -67.174311818
     EC              =      0.055793024
     EX+EC           =    -67.118518793
Transforming the Hamiltonian                       ... done (   0.3 sec)
Diagonalizing the Hamiltonian                      ... done (   0.6 sec)
Back transforming the eigenvectors                 ... done (   0.1 sec)
Now organizing SCF variables                       ... done
                      ------------------
                      INITIAL GUESS DONE (   3.5 sec)
                      ------------------
             **** ENERGY FILE WAS UPDATED (pg1_frag.en.tmp) ****
Finished Guess after   5.1 sec
Maximum memory used throughout the entire GUESS-calculation: 252.4 MB


           ************************************************************
           *        Program running with 10 parallel MPI-processes    *
           *              working on a common directory               *
           ************************************************************

-------------------------------------------------------------------------------------------
                                      ORCA LEAN-SCF
                              memory conserving SCF solver
-------------------------------------------------------------------------------------------

--------------------
CPCM SOLVATION MODEL
--------------------
CPCM parameters:
  Epsilon                                         ...       3.0000
  Refrac                                          ...       1.3300
  Rsolv                                           ...       1.3000
  Surface type                                    ... GAUSSIAN VDW
  Discretization scheme                           ... Constant charge density
    Threshold for H atoms                         ...       5.0000 (charges/Ang^2)
    Threshold for non-H atoms                     ...       5.0000 (charges/Ang^2)
  Epsilon function type                           ...         CPCM
Solvent:                                          ... CUSTOM
Radii:
  Scheme                                          ... Element-dependent radii
  Radius for C  used is    3.8550 Bohr (=   2.0400 Ang.)
  Radius for O  used is    3.4469 Bohr (=   1.8240 Ang.)
  Radius for P  used is    4.0818 Bohr (=   2.1600 Ang.)
  Radius for H  used is    2.4944 Bohr (=   1.3200 Ang.)
  Radius for N  used is    3.5149 Bohr (=   1.8600 Ang.)
Calculating surface                               ...        done! (  0.0s)
Cavity surface points                             ...         3417
Cavity Volume                                     ...    2301.9420
Cavity Surface-area                               ...    1250.9080
Calculating surface distance matrix               ...        done! (  0.1s)
Performing Cholesky decomposition & store         ...        done! (  0.3s)
Overall time for CPCM initialization              ...                 0.3s

----------------------------------------D-I-I-S--------------------------------------------
Iteration    Energy (Eh)           Delta-E    RMSDP     MaxDP     DIISErr   Damp  Time(sec)
-------------------------------------------------------------------------------------------
               ***  Starting incremental Fock matrix formation  ***
    1    -720.5109019931257990     0.00e+00  7.07e-03  4.28e+00  3.82e-01  0.700  41.6
    2    -720.6553273374277069    -1.44e-01  7.23e-03  4.39e+00  1.94e-01  0.700  27.4
                               ***Turning on AO-DIIS***
    3    -720.7235666591136578    -6.82e-02  6.01e-03  3.35e+00  8.03e-02  0.700  24.6
    4    -720.7646739366966813    -4.11e-02  1.60e-02  8.19e+00  5.31e-02  0.000  24.0
    5    -720.8549413304390328    -9.03e-02  1.46e-03  6.88e-01  5.50e-03  0.000  26.3
                              *** Initializing SOSCF ***
---------------------------------------S-O-S-C-F--------------------------------------
Iteration    Energy (Eh)           Delta-E    RMSDP     MaxDP     MaxGrad    Time(sec)
--------------------------------------------------------------------------------------
    6    -720.8551090983764880    -1.68e-04  3.14e-04  1.29e-01  1.93e-03    24.9
               *** Restarting incremental Fock matrix formation ***
    7    -720.8551257174992770    -1.66e-05  1.33e-02  6.53e+00  1.95e-04    43.2
    8    -720.8551374545702402    -1.17e-05  1.26e-03  4.25e-01  4.40e-05    41.2
    9    -720.8551376064640408    -1.52e-07  8.46e-04  2.81e-01  4.31e-05    36.2
   10    -720.8551382399123213    -6.33e-07  1.18e-04  4.01e-02  4.94e-06    35.0
   11    -720.8551382792647928    -3.94e-08  1.75e-05  4.65e-03  2.61e-06    28.1
   12    -720.8551382958976319    -1.66e-08  2.68e-05  6.79e-03  1.17e-06    22.9
                  *** Gradient check signals convergence ***

               *****************************************************
               *                     SUCCESS                       *
               *           SCF CONVERGED AFTER  12 CYCLES          *
               *****************************************************

Recomputing exchange energy using gridx3       ... done (   71.314 sec)
Old exchange energy                            :    -47.317052142 Eh
New exchange energy                            :    -47.317019216 Eh
Exchange energy change after final integration :      0.000032926 Eh
Total energy after final integration           :   -720.855105370 Eh
             **** ENERGY FILE WAS UPDATED (pg1_frag.en.tmp) ****

----------------
TOTAL SCF ENERGY
----------------

Total Energy       :       -720.85510536988772 Eh          -19615.46465 eV

Components:
Nuclear Repulsion  :        433.89796476928035 Eh           11806.96388 eV
Electronic Energy  :      -1154.68118440851526 Eh          -31420.47241 eV
One Electron Energy:      -1869.95362257849320 Eh          -50884.02496 eV
Two Electron Energy:        715.27243816997793 Eh           19463.55255 eV
CPCM Dielectric    :         -0.07191865666269 Eh              -1.95701 eV

Virial components:
Potential Energy   :      -1440.29031763087596 Eh          -39192.29204 eV
Kinetic Energy     :        719.43521226098835 Eh           19576.82739 eV
Virial Ratio       :          2.00197362192551

DFT components:
N(Alpha)           :       32.999977588608 electrons
N(Beta)            :       32.999977588608 electrons
N(Total)           :       65.999955177216 electrons
E(X)               :      -21.184631630231 Eh       
E(C)               :       -1.086721344595 Eh       
E(XC)              :      -22.271352974826 Eh       

CPCM Solvation Model Properties:
Surface-charge          :          0.98449716444062
Corrected charge        :          1.00000000000000
Outlying charge corr.   :          0.00000867827970 Eh               0.00024 eV
Free-energy (cav+disp)  :  This term is not implemented in the current solvation scheme

---------------
SCF CONVERGENCE
---------------

  Last Energy change         ...    1.6633e-08  Tolerance :   1.0000e-08
  Last MAX-Density change    ...    6.7915e-03  Tolerance :   1.0000e-07
  Last RMS-Density change    ...    2.6775e-05  Tolerance :   5.0000e-09
  Last DIIS Error            ...    1.9266e-03  Tolerance :   5.0000e-07
  Last Orbital Gradient      ...    1.1744e-06  Tolerance :   1.0000e-05
  Last Orbital Rotation      ...    3.4412e-07  Tolerance :   1.0000e-05


----------------
ORBITAL ENERGIES
----------------

  NO   OCC          E(Eh)            E(eV) 
   0   2.0000     -78.848341     -2145.5724 
   1   2.0000     -19.951340      -542.9036 
   2   2.0000     -19.949049      -542.8412 
   3   2.0000     -19.863037      -540.5007 
   4   2.0000     -19.861543      -540.4601 
   5   2.0000     -10.811237      -294.1887 
   6   2.0000     -10.811235      -294.1887 
   7   2.0000      -7.127582      -193.9514 
   8   2.0000      -5.125808      -139.4803 
   9   2.0000      -5.124844      -139.4541 
  10   2.0000      -5.122318      -139.3854 
  11   2.0000      -1.218624       -33.1605 
  12   2.0000      -1.175060       -31.9750 
  13   2.0000      -1.083105       -29.4728 
  14   2.0000      -1.042521       -28.3684 
  15   2.0000      -0.813512       -22.1368 
  16   2.0000      -0.783908       -21.3312 
  17   2.0000      -0.619351       -16.8534 
  18   2.0000      -0.564276       -15.3547 
  19   2.0000      -0.528249       -14.3744 
  20   2.0000      -0.524551       -14.2738 
  21   2.0000      -0.511529       -13.9194 
  22   2.0000      -0.494858       -13.4658 
  23   2.0000      -0.470290       -12.7973 
  24   2.0000      -0.418951       -11.4002 
  25   2.0000      -0.392925       -10.6920 
  26   2.0000      -0.378363       -10.2958 
  27   2.0000      -0.359719        -9.7884 
  28   2.0000      -0.347494        -9.4558 
  29   2.0000      -0.334779        -9.1098 
  30   2.0000      -0.315470        -8.5844 
  31   2.0000      -0.297927        -8.1070 
  32   2.0000      -0.281049        -7.6477 
  33   0.0000       0.051228         1.3940 
  34   0.0000       0.065982         1.7955 
  35   0.0000       0.073580         2.0022 
  36   0.0000       0.077999         2.1224 
  37   0.0000       0.087926         2.3926 
  38   0.0000       0.089991         2.4488 
  39   0.0000       0.094618         2.5747 
  40   0.0000       0.101011         2.7487 
  41   0.0000       0.105982         2.8839 
  42   0.0000       0.109715         2.9855 
  43   0.0000       0.110881         3.0172 
*Only the first 10 virtual orbitals were printed.

                    ********************************
                    * MULLIKEN POPULATION ANALYSIS *
                    ********************************

-----------------------
MULLIKEN ATOMIC CHARGES
-----------------------
   0 C :   -0.098193
   1 C :   -0.080964
   2 O :   -0.491837
   3 O :   -0.807804
   4 O :   -0.718044
   5 O :   -0.523640
   6 P :    0.910108
   7 H :   -0.171322
   8 H :    0.273767
   9 H :    0.274710
  10 H :    0.008287
  11 H :    0.168075
  12 H :    0.188906
  13 C :    0.000567
  14 N :    0.000419
  15 N :    0.008875
  16 H :    0.046703
  17 C :    0.003377
  18 C :   -0.058184
  19 H :    0.056298
  20 C :   -0.002491
  21 H :   -0.003516
  22 H :    0.000015
  23 H :   -0.000331
  24 H :    0.000375
  25 C :    0.000430
  26 N :   -0.001431
  27 N :    0.040850
  28 H :    0.025245
  29 C :   -0.001709
  30 C :   -0.008514
  31 H :   -0.019265
  32 C :   -0.003247
  33 H :   -0.016679
  34 H :    0.000542
  35 H :   -0.000722
  36 H :    0.000342
Sum of atomic charges:   -1.0000000

--------------------------------
MULLIKEN REDUCED ORBITAL CHARGES
--------------------------------
  0 C s       :     3.186153  s :     3.186153
      pz      :     1.025587  p :     2.763451
      px      :     1.162114
      py      :     0.575750
      dz2     :     0.003542  d :     0.131870
      dxz     :     0.028305
      dyz     :     0.029103
      dx2y2   :     0.028662
      dxy     :     0.042259
      f0      :     0.001954  f :     0.015010
      f+1     :     0.000794
      f-1     :     0.001871
      f+2     :     0.003118
      f-2     :     0.000074
      f+3     :     0.004884
      f-3     :     0.002315
      g0      :     0.000102  g :     0.001710
      g+1     :     0.000025
      g-1     :     0.000283
      g+2     :     0.000209
      g-2     :     0.000083
      g+3     :     0.000026
      g-3     :     0.000242
      g+4     :     0.000312
      g-4     :     0.000429

  1 C s       :     3.236381  s :     3.236381
      pz      :     0.925723  p :     2.703156
      px      :     0.965551
      py      :     0.811882
      dz2     :     0.055745  d :     0.124827
      dxz     :     0.011189
      dyz     :     0.016660
      dx2y2   :     0.012066
      dxy     :     0.029167
      f0      :     0.001809  f :     0.014905
      f+1     :     0.000910
      f-1     :     0.004035
      f+2     :     0.002156
      f-2     :     0.002485
      f+3     :     0.001768
      f-3     :     0.001742
      g0      :     0.000160  g :     0.001695
      g+1     :     0.000057
      g-1     :     0.000296
      g+2     :     0.000231
      g-2     :     0.000189
      g+3     :     0.000252
      g-3     :     0.000243
      g+4     :     0.000117
      g-4     :     0.000149

  2 O s       :     3.820689  s :     3.820689
      pz      :     1.638654  p :     4.667568
      px      :     1.809721
      py      :     1.219193
      dz2     :    -0.000941  d :    -0.000737
      dxz     :     0.000407
      dyz     :    -0.005447
      dx2y2   :     0.002815
      dxy     :     0.002429
      f0      :     0.000406  f :     0.004163
      f+1     :     0.000167
      f-1     :     0.000744
      f+2     :     0.000689
      f-2     :     0.000367
      f+3     :     0.000768
      f-3     :     0.001021
      g0      :     0.000016  g :     0.000156
      g+1     :     0.000002
      g-1     :     0.000030
      g+2     :     0.000029
      g-2     :     0.000011
      g+3     :     0.000008
      g-3     :     0.000016
      g+4     :     0.000023
      g-4     :     0.000020

  3 O s       :     3.883505  s :     3.883505
      pz      :     1.715860  p :     4.903547
      px      :     1.632075
      py      :     1.555612
      dz2     :     0.001684  d :     0.018478
      dxz     :     0.002998
      dyz     :     0.003011
      dx2y2   :     0.005983
      dxy     :     0.004802
      f0      :     0.000177  f :     0.002200
      f+1     :     0.000222
      f-1     :     0.000283
      f+2     :     0.000198
      f-2     :     0.000375
      f+3     :     0.000444
      f-3     :     0.000502
      g0      :     0.000007  g :     0.000074
      g+1     :     0.000004
      g-1     :     0.000006
      g+2     :     0.000001
      g-2     :     0.000011
      g+3     :     0.000010
      g-3     :     0.000008
      g+4     :     0.000012
      g-4     :     0.000014

  4 O s       :     3.848678  s :     3.848678
      pz      :     1.461591  p :     4.856690
      px      :     1.745534
      py      :     1.649565
      dz2     :     0.005362  d :     0.010441
      dxz     :     0.004464
      dyz     :    -0.000482
      dx2y2   :     0.000411
      dxy     :     0.000685
      f0      :     0.000550  f :     0.002165
      f+1     :     0.000307
      f-1     :     0.000415
      f+2     :     0.000340
      f-2     :     0.000364
      f+3     :     0.000089
      f-3     :     0.000100
      g0      :     0.000010  g :     0.000070
      g+1     :     0.000007
      g-1     :     0.000015
      g+2     :     0.000011
      g-2     :     0.000012
      g+3     :     0.000006
      g-3     :     0.000006
      g+4     :     0.000001
      g-4     :     0.000001

  5 O s       :     3.851733  s :     3.851733
      pz      :     1.636378  p :     4.658745
      px      :     1.492962
      py      :     1.529405
      dz2     :     0.002853  d :     0.008887
      dxz     :    -0.002294
      dyz     :     0.004043
      dx2y2   :     0.003577
      dxy     :     0.000708
      f0      :     0.000551  f :     0.004120
      f+1     :     0.000275
      f-1     :     0.000694
      f+2     :     0.000575
      f-2     :     0.000779
      f+3     :     0.000678
      f-3     :     0.000568
      g0      :     0.000012  g :     0.000155
      g+1     :     0.000007
      g-1     :     0.000018
      g+2     :     0.000023
      g-2     :     0.000015
      g+3     :     0.000020
      g-3     :     0.000024
      g+4     :     0.000017
      g-4     :     0.000019

  6 P s       :     5.223433  s :     5.223433
      pz      :     2.642810  p :     7.915522
      px      :     2.656000
      py      :     2.616711
      dz2     :     0.182332  d :     0.766932
      dxz     :     0.147482
      dyz     :     0.163320
      dx2y2   :     0.147445
      dxy     :     0.126354
      f0      :     0.027835  f :     0.158375
      f+1     :     0.016231
      f-1     :     0.020796
      f+2     :     0.021669
      f-2     :     0.027691
      f+3     :     0.024114
      f-3     :     0.020040
      g0      :     0.002635  g :     0.025630
      g+1     :     0.001886
      g-1     :     0.003479
      g+2     :     0.002716
      g-2     :     0.003992
      g+3     :     0.002439
      g-3     :     0.002970
      g+4     :     0.002829
      g-4     :     0.002683

  7 H s       :     1.101039  s :     1.101039
      pz      :     0.041954  p :     0.066753
      px      :     0.010752
      py      :     0.014046
      dz2     :     0.000807  d :     0.003315
      dxz     :     0.001072
      dyz     :     0.000695
      dx2y2   :     0.000526
      dxy     :     0.000215
      f0      :     0.000044  f :     0.000215
      f+1     :     0.000061
      f-1     :     0.000023
      f+2     :     0.000046
      f-2     :     0.000030
      f+3     :     0.000004
      f-3     :     0.000007

  8 H s       :     0.673901  s :     0.673901
      pz      :     0.013383  p :     0.048357
      px      :     0.022656
      py      :     0.012318
      dz2     :     0.000743  d :     0.003749
      dxz     :     0.000998
      dyz     :     0.000309
      dx2y2   :     0.000976
      dxy     :     0.000724
      f0      :     0.000012  f :     0.000225
      f+1     :     0.000079
      f-1     :     0.000009
      f+2     :     0.000031
      f-2     :     0.000020
      f+3     :     0.000052
      f-3     :     0.000022

  9 H s       :     0.685705  s :     0.685705
      pz      :     0.016202  p :     0.035552
      px      :     0.012205
      py      :     0.007145
      dz2     :     0.001324  d :     0.003807
      dxz     :     0.000385
      dyz     :     0.000508
      dx2y2   :     0.000905
      dxy     :     0.000685
      f0      :     0.000036  f :     0.000226
      f+1     :     0.000079
      f-1     :     0.000012
      f+2     :     0.000023
      f-2     :     0.000021
      f+3     :     0.000040
      f-3     :     0.000015

 10 H s       :     0.949547  s :     0.949547
      pz      :     0.009809  p :     0.038774
      px      :     0.020502
      py      :     0.008463
      dz2     :     0.000208  d :     0.003181
      dxz     :     0.001103
      dyz     :     0.000185
      dx2y2   :     0.000524
      dxy     :     0.001161
      f0      :     0.000029  f :     0.000211
      f+1     :     0.000016
      f-1     :     0.000008
      f+2     :     0.000036
      f-2     :     0.000022
      f+3     :     0.000036
      f-3     :     0.000064

 11 H s       :     0.774835  s :     0.774835
      pz      :     0.014988  p :     0.053275
      px      :     0.022671
      py      :     0.015616
      dz2     :     0.000803  d :     0.003596
      dxz     :     0.001187
      dyz     :     0.001201
      dx2y2   :     0.000238
      dxy     :     0.000167
      f0      :     0.000051  f :     0.000220
      f+1     :     0.000063
      f-1     :     0.000055
      f+2     :     0.000032
      f-2     :     0.000017
      f+3     :    -0.000001
      f-3     :     0.000003

 12 H s       :     0.777409  s :     0.777409
      pz      :     0.005095  p :     0.029904
      px      :     0.014875
      py      :     0.009933
      dz2     :     0.000374  d :     0.003564
      dxz     :     0.000177
      dyz     :     0.001053
      dx2y2   :     0.001372
      dxy     :     0.000588
      f0      :     0.000017  f :     0.000217
      f+1     :     0.000011
      f-1     :     0.000033
      f+2     :     0.000027
      f-2     :     0.000020
      f+3     :     0.000024
      f-3     :     0.000086

 13 C s       :    -0.000056  s :    -0.000056
      pz      :    -0.000698  p :    -0.000369
      px      :     0.000460
      py      :    -0.000132
      dz2     :     0.000011  d :    -0.000142
      dxz     :     0.000064
      dyz     :     0.000018
      dx2y2   :    -0.000197
      dxy     :    -0.000039
      f0      :     0.000000  f :    -0.000000
      f+1     :     0.000000
      f-1     :     0.000000
      f+2     :    -0.000000
      f-2     :    -0.000000
      f+3     :     0.000000
      f-3     :     0.000000
      g0      :    -0.000000  g :    -0.000000
      g+1     :    -0.000000
      g-1     :    -0.000000
      g+2     :     0.000000
      g-2     :    -0.000000
      g+3     :     0.000000
      g-3     :    -0.000000
      g+4     :    -0.000000
      g-4     :    -0.000000

 14 N s       :     0.000870  s :     0.000870
      pz      :    -0.000337  p :    -0.000719
      px      :    -0.000507
      py      :     0.000124
      dz2     :    -0.000041  d :    -0.000569
      dxz     :    -0.000093
      dyz     :    -0.000035
      dx2y2   :    -0.000346
      dxy     :    -0.000052
      f0      :    -0.000000  f :    -0.000000
      f+1     :    -0.000000
      f-1     :     0.000000
      f+2     :     0.000000
      f-2     :     0.000000
      f+3     :    -0.000000
      f-3     :    -0.000000
      g0      :     0.000000  g :    -0.000000
      g+1     :    -0.000000
      g-1     :    -0.000000
      g+2     :    -0.000000
      g-2     :    -0.000000
      g+3     :    -0.000000
      g-3     :    -0.000000
      g+4     :    -0.000000
      g-4     :    -0.000000

 15 N s       :    -0.006072  s :    -0.006072
      pz      :    -0.001498  p :    -0.005364
      px      :    -0.007159
      py      :     0.003292
      dz2     :    -0.000279  d :     0.002567
      dxz     :     0.002002
      dyz     :    -0.000639
      dx2y2   :     0.003260
      dxy     :    -0.001778
      f0      :     0.000001  f :    -0.000006
      f+1     :     0.000002
      f-1     :     0.000000
      f+2     :    -0.000006
      f-2     :     0.000000
      f+3     :    -0.000006
      f-3     :     0.000002
      g0      :    -0.000000  g :    -0.000000
      g+1     :     0.000000
      g-1     :     0.000000
      g+2     :     0.000000
      g-2     :     0.000000
      g+3     :    -0.000000
      g-3     :     0.000000
      g+4     :    -0.000000
      g-4     :     0.000000

 16 H s       :    -0.019793  s :    -0.019793
      pz      :    -0.008085  p :    -0.026709
      px      :    -0.013108
      py      :    -0.005515
      dz2     :    -0.000020  d :    -0.000206
      dxz     :    -0.000114
      dyz     :    -0.000003
      dx2y2   :    -0.000065
      dxy     :    -0.000003
      f0      :     0.000000  f :     0.000004
      f+1     :     0.000000
      f-1     :    -0.000000
      f+2     :     0.000001
      f-2     :    -0.000000
      f+3     :     0.000004
      f-3     :    -0.000001

 17 C s       :    -0.000984  s :    -0.000984
      pz      :    -0.000933  p :    -0.006312
      px      :    -0.005346
      py      :    -0.000034
      dz2     :     0.000178  d :     0.003919
      dxz     :     0.001333
      dyz     :     0.000175
      dx2y2   :     0.001867
      dxy     :     0.000367
      f0      :    -0.000000  f :     0.000000
      f+1     :     0.000000
      f-1     :     0.000000
      f+2     :     0.000000
      f-2     :    -0.000000
      f+3     :     0.000000
      f-3     :    -0.000000
      g0      :    -0.000000  g :    -0.000000
      g+1     :    -0.000000
      g-1     :    -0.000000
      g+2     :    -0.000000
      g-2     :    -0.000000
      g+3     :     0.000000
      g-3     :    -0.000000
      g+4     :    -0.000000
      g-4     :    -0.000000

 18 C s       :    -0.000518  s :    -0.000518
      pz      :     0.017111  p :     0.041207
      px      :     0.019839
      py      :     0.004257
      dz2     :     0.000181  d :     0.017478
      dxz     :     0.002605
      dyz     :     0.000978
      dx2y2   :     0.011495
      dxy     :     0.002218
      f0      :     0.000004  f :     0.000018
      f+1     :     0.000005
      f-1     :    -0.000000
      f+2     :     0.000014
      f-2     :    -0.000000
      f+3     :     0.000003
      f-3     :    -0.000007
      g0      :    -0.000000  g :    -0.000000
      g+1     :     0.000000
      g-1     :    -0.000000
      g+2     :    -0.000000
      g-2     :    -0.000000
      g+3     :    -0.000000
      g-3     :    -0.000000
      g+4     :    -0.000000
      g-4     :    -0.000000

 19 H s       :    -0.032169  s :    -0.032169
      pz      :     0.004411  p :    -0.024133
      px      :    -0.019391
      py      :    -0.009152
      dz2     :     0.000004  d :     0.000005
      dxz     :    -0.000032
      dyz     :     0.000016
      dx2y2   :     0.000007
      dxy     :     0.000010
      f0      :    -0.000000  f :    -0.000001
      f+1     :    -0.000000
      f-1     :    -0.000000
      f+2     :    -0.000001
      f-2     :    -0.000000
      f+3     :    -0.000000
      f-3     :     0.000000

 20 C s       :    -0.002444  s :    -0.002444
      pz      :    -0.000551  p :    -0.002012
      px      :    -0.009457
      py      :     0.007995
      dz2     :     0.000359  d :     0.006945
      dxz     :     0.001889
      dyz     :    -0.000124
      dx2y2   :     0.003395
      dxy     :     0.001426
      f0      :     0.000001  f :     0.000002
      f+1     :     0.000000
      f-1     :    -0.000000
      f+2     :    -0.000000
      f-2     :     0.000000
      f+3     :     0.000000
      f-3     :     0.000001
      g0      :     0.000000  g :     0.000000
      g+1     :    -0.000000
      g-1     :    -0.000000
      g+2     :     0.000000
      g-2     :    -0.000000
      g+3     :     0.000000
      g-3     :    -0.000000
      g+4     :     0.000000
      g-4     :     0.000000

 21 H s       :     0.002986  s :     0.002986
      pz      :     0.000127  p :     0.000530
      px      :    -0.000596
      py      :     0.001000
      dz2     :     0.000000  d :     0.000000
      dxz     :     0.000000
      dyz     :     0.000000
      dx2y2   :    -0.000000
      dxy     :     0.000000
      f0      :     0.000000  f :    -0.000000
      f+1     :    -0.000000
      f-1     :    -0.000000
      f+2     :    -0.000000
      f-2     :    -0.000000
      f+3     :     0.000000
      f-3     :     0.000000

 22 H s       :     0.000048  s :     0.000048
      pz      :    -0.000028  p :    -0.000064
      px      :    -0.000011
      py      :    -0.000025
      dz2     :    -0.000000  d :     0.000000
      dxz     :    -0.000000
      dyz     :     0.000000
      dx2y2   :    -0.000000
      dxy     :     0.000000
      f0      :    -0.000000  f :    -0.000000
      f+1     :    -0.000000
      f-1     :    -0.000000
      f+2     :    -0.000000
      f-2     :    -0.000000
      f+3     :    -0.000000
      f-3     :    -0.000000

 23 H s       :     0.000285  s :     0.000285
      pz      :    -0.000020  p :     0.000045
      px      :     0.000064
      py      :     0.000001
      dz2     :     0.000000  d :    -0.000000
      dxz     :    -0.000000
      dyz     :    -0.000000
      dx2y2   :    -0.000000
      dxy     :     0.000000
      f0      :    -0.000000  f :    -0.000000
      f+1     :    -0.000000
      f-1     :    -0.000000
      f+2     :     0.000000
      f-2     :    -0.000000
      f+3     :    -0.000000
      f-3     :    -0.000000

 24 H s       :    -0.000308  s :    -0.000308
      pz      :    -0.000046  p :    -0.000066
      px      :     0.000010
      py      :    -0.000031
      dz2     :    -0.000000  d :    -0.000000
      dxz     :    -0.000000
      dyz     :     0.000000
      dx2y2   :     0.000000
      dxy     :     0.000000
      f0      :    -0.000000  f :    -0.000000
      f+1     :     0.000000
      f-1     :    -0.000000
      f+2     :    -0.000000
      f-2     :     0.000000
      f+3     :    -0.000000
      f-3     :    -0.000000

 25 C s       :    -0.000062  s :    -0.000062
      pz      :    -0.000834  p :    -0.000231
      px      :     0.000770
      py      :    -0.000167
      dz2     :    -0.000138  d :    -0.000138
      dxz     :     0.000032
      dyz     :     0.000006
      dx2y2   :    -0.000058
      dxy     :     0.000021
      f0      :    -0.000000  f :    -0.000000
      f+1     :    -0.000000
      f-1     :     0.000000
      f+2     :     0.000000
      f-2     :     0.000000
      f+3     :    -0.000000
      f-3     :    -0.000000
      g0      :    -0.000000  g :    -0.000000
      g+1     :    -0.000000
      g-1     :    -0.000000
      g+2     :     0.000000
      g-2     :    -0.000000
      g+3     :     0.000000
      g-3     :     0.000000
      g+4     :     0.000000
      g-4     :     0.000000

 26 N s       :     0.000271  s :     0.000271
      pz      :     0.000840  p :     0.000732
      px      :     0.000024
      py      :    -0.000132
      dz2     :     0.000258  d :     0.000428
      dxz     :     0.000180
      dyz     :     0.000022
      dx2y2   :    -0.000005
      dxy     :    -0.000028
      f0      :     0.000000  f :     0.000000
      f+1     :     0.000000
      f-1     :     0.000000
      f+2     :     0.000000
      f-2     :     0.000000
      f+3     :     0.000000
      f-3     :    -0.000000
      g0      :    -0.000000  g :    -0.000000
      g+1     :    -0.000000
      g-1     :    -0.000000
      g+2     :    -0.000000
      g-2     :     0.000000
      g+3     :    -0.000000
      g-3     :    -0.000000
      g+4     :    -0.000000
      g-4     :    -0.000000

 27 N s       :    -0.040354  s :    -0.040354
      pz      :    -0.007708  p :    -0.009726
      px      :     0.001309
      py      :    -0.003327
      dz2     :     0.006836  d :     0.009253
      dxz     :     0.000885
      dyz     :     0.000391
      dx2y2   :     0.000784
      dxy     :     0.000357
      f0      :    -0.000017  f :    -0.000023
      f+1     :    -0.000002
      f-1     :    -0.000002
      f+2     :    -0.000001
      f-2     :    -0.000001
      f+3     :    -0.000000
      f-3     :    -0.000000
      g0      :    -0.000000  g :    -0.000000
      g+1     :    -0.000000
      g-1     :    -0.000000
      g+2     :    -0.000000
      g-2     :    -0.000000
      g+3     :    -0.000000
      g-3     :    -0.000000
      g+4     :    -0.000000
      g-4     :    -0.000000

 28 H s       :    -0.003272  s :    -0.003272
      pz      :    -0.022157  p :    -0.021801
      px      :     0.007167
      py      :    -0.006812
      dz2     :    -0.000158  d :    -0.000184
      dxz     :    -0.000061
      dyz     :     0.000037
      dx2y2   :     0.000007
      dxy     :    -0.000011
      f0      :     0.000004  f :     0.000012
      f+1     :     0.000001
      f-1     :     0.000004
      f+2     :     0.000001
      f-2     :     0.000001
      f+3     :     0.000000
      f-3     :     0.000000

 29 C s       :     0.000950  s :     0.000950
      pz      :    -0.001640  p :    -0.003031
      px      :    -0.000808
      py      :    -0.000583
      dz2     :     0.001734  d :     0.003790
      dxz     :     0.001311
      dyz     :     0.000655
      dx2y2   :     0.000087
      dxy     :     0.000003
      f0      :     0.000000  f :     0.000000
      f+1     :     0.000000
      f-1     :    -0.000000
      f+2     :     0.000000
      f-2     :     0.000000
      f+3     :     0.000000
      f-3     :     0.000000
      g0      :    -0.000000  g :    -0.000000
      g+1     :    -0.000000
      g-1     :    -0.000000
      g+2     :    -0.000000
      g-2     :    -0.000000
      g+3     :    -0.000000
      g-3     :    -0.000000
      g+4     :    -0.000000
      g-4     :    -0.000000

 30 C s       :    -0.007007  s :    -0.007007
      pz      :     0.009763  p :     0.022745
      px      :     0.004374
      py      :     0.008608
      dz2     :    -0.008844  d :    -0.007220
      dxz     :    -0.000808
      dyz     :     0.001633
      dx2y2   :     0.000240
      dxy     :     0.000559
      f0      :     0.000001  f :    -0.000004
      f+1     :    -0.000000
      f-1     :    -0.000000
      f+2     :    -0.000003
      f-2     :    -0.000001
      f+3     :    -0.000000
      f-3     :    -0.000000
      g0      :    -0.000000  g :    -0.000000
      g+1     :     0.000000
      g-1     :     0.000000
      g+2     :    -0.000000
      g-2     :    -0.000000
      g+3     :    -0.000000
      g-3     :    -0.000000
      g+4     :     0.000000
      g-4     :     0.000000

 31 H s       :     0.015735  s :     0.015735
      pz      :     0.003802  p :     0.003527
      px      :     0.000864
      py      :    -0.001139
      dz2     :     0.000001  d :     0.000003
      dxz     :     0.000001
      dyz     :     0.000002
      dx2y2   :    -0.000001
      dxy     :     0.000000
      f0      :     0.000000  f :     0.000000
      f+1     :     0.000000
      f-1     :     0.000000
      f+2     :     0.000000
      f-2     :     0.000000
      f+3     :     0.000000
      f-3     :    -0.000000

 32 C s       :    -0.001313  s :    -0.001313
      pz      :    -0.003891  p :    -0.007314
      px      :    -0.003057
      py      :    -0.000366
[...]
      f-2     :     0.000000
      f+3     :     0.000000
      f-3     :     0.000000

 36 H s       :     0.000005  s :     0.000005
      pz      :     0.000001  p :     0.000002
      px      :     0.000001
      py      :     0.000000
      dz2     :     0.000000  d :     0.000000
      dxz     :     0.000000
      dyz     :     0.000000
      dx2y2   :     0.000000
      dxy     :     0.000000
      f0      :     0.000000  f :     0.000000
      f+1     :     0.000000
      f-1     :     0.000000
      f+2     :     0.000000
      f-2     :     0.000000
      f+3     :     0.000000
      f-3     :     0.000000



                      *****************************
                      * MAYER POPULATION ANALYSIS *
                      *****************************

  NA   - Mulliken gross atomic population
  ZA   - Total nuclear charge
  QA   - Mulliken gross atomic charge
  VA   - Mayer's total valence
  BVA  - Mayer's bonded valence
  FA   - Mayer's free valence

  ATOM       NA         ZA         QA         VA         BVA        FA
  0 C      6.0982     6.0000    -0.0982     3.6084     3.6084     0.0000
  1 C      6.0810     6.0000    -0.0810     3.6925     3.6925     0.0000
  2 O      8.4918     8.0000    -0.4918     1.4114     1.4114    -0.0000
  3 O      8.8078     8.0000    -0.8078     1.5990     1.5990    -0.0000
  4 O      8.7180     8.0000    -0.7180     1.5223     1.5223     0.0000
  5 O      8.5236     8.0000    -0.5236     1.4533     1.4533    -0.0000
  6 P     14.0899    15.0000     0.9101     5.2648     5.2648    -0.0000
  7 H      1.1713     1.0000    -0.1713     1.2566     1.2566     0.0000
  8 H      0.7262     1.0000     0.2738     0.9754     0.9754    -0.0000
  9 H      0.7253     1.0000     0.2747     0.9123     0.9123     0.0000
 10 H      0.9917     1.0000     0.0083     1.0435     1.0435     0.0000
 11 H      0.8319     1.0000     0.1681     1.0423     1.0423    -0.0000
 12 H      0.8111     1.0000     0.1889     0.9275     0.9275    -0.0000
 13 C     -0.0006     0.0000     0.0006    -0.0011    -0.0011    -0.0000
 14 N     -0.0004     0.0000     0.0004    -0.0008    -0.0008    -0.0000
 15 N     -0.0089     0.0000     0.0089    -0.0179    -0.0179    -0.0000
 16 H     -0.0467     0.0000     0.0467    -0.0950    -0.0950    -0.0000
 17 C     -0.0034     0.0000     0.0034    -0.0067    -0.0067     0.0000
 18 C      0.0582     0.0000    -0.0582     0.1134     0.1134     0.0000
 19 H     -0.0563     0.0000     0.0563    -0.1160    -0.1160    -0.0000
 20 C      0.0025     0.0000    -0.0025     0.0049     0.0049    -0.0000
 21 H      0.0035     0.0000    -0.0035     0.0070     0.0070     0.0000
 22 H     -0.0000     0.0000     0.0000    -0.0000    -0.0000    -0.0000
 23 H      0.0003     0.0000    -0.0003     0.0007     0.0007    -0.0000
 24 H     -0.0004     0.0000     0.0004    -0.0007    -0.0007    -0.0000
 25 C     -0.0004     0.0000     0.0004    -0.0009    -0.0009    -0.0000
 26 N      0.0014     0.0000    -0.0014     0.0029     0.0029    -0.0000
 27 N     -0.0409     0.0000     0.0409    -0.0833    -0.0833     0.0000
 28 H     -0.0252     0.0000     0.0252    -0.0501    -0.0501     0.0000
 29 C      0.0017     0.0000    -0.0017     0.0034     0.0034    -0.0000
 30 C      0.0085     0.0000    -0.0085     0.0164     0.0164    -0.0000
 31 H      0.0193     0.0000    -0.0193     0.0383     0.0383    -0.0000
 32 C      0.0032     0.0000    -0.0032     0.0065     0.0065     0.0000
 33 H      0.0167     0.0000    -0.0167     0.0331     0.0331    -0.0000
 34 H     -0.0005     0.0000     0.0005    -0.0011    -0.0011     0.0000
 35 H      0.0007     0.0000    -0.0007     0.0014     0.0014    -0.0000
 36 H     -0.0003     0.0000     0.0003    -0.0007    -0.0007    -0.0000

  Mayer bond orders larger than 0.100000
B(  0-C ,  2-O ) :   0.7671 B(  0-C ,  7-H ) :   1.2627 B(  0-C ,  8-H ) :   0.8421 
B(  0-C ,  9-H ) :   0.8571 B(  1-C ,  5-O ) :   0.7324 B(  1-C , 10-H ) :   1.0856 
B(  1-C , 11-H ) :   0.9605 B(  1-C , 12-H ) :   0.9184 B(  2-O ,  6-P ) :   0.8321 
B(  3-O ,  6-P ) :   1.8852 B(  4-O ,  6-P ) :   1.7009 B(  5-O ,  6-P ) :   0.9731 


-------
TIMINGS
-------

Total SCF time: 0 days 0 hours 7 min 30 sec 

Total time                  ....     450.574 sec
Sum of individual times     ....     451.386 sec  (100.2%)

SCF preparation             ....       1.498 sec  (  0.3%)
Fock matrix formation       ....     428.143 sec  ( 95.0%)
  Startup                   ....       0.700 sec  (  0.2% of F)
  Split-RI-J                ....      20.880 sec  (  4.9% of F)
  Chain of spheres X        ....     331.581 sec  ( 77.4% of F)
  XC integration            ....      45.933 sec  ( 10.7% of F)
    XC Preparation          ....       0.000 sec  (  0.0% of XC)
    Basis function eval.    ....       4.959 sec  ( 10.8% of XC)
    Density eval.           ....      16.280 sec  ( 35.4% of XC)
    XC-Functional eval.     ....       0.103 sec  (  0.2% of XC)
    XC-Potential eval.      ....      18.999 sec  ( 41.4% of XC)
  CPCM terms                ....      27.384 sec  (  6.4% of F)
Diagonalization             ....       0.000 sec  (  0.0%)
Density matrix formation    ....       1.780 sec  (  0.4%)
Total Energy calculation    ....       0.982 sec  (  0.2%)
Population analysis         ....       0.815 sec  (  0.2%)
Orbital Transformation      ....       2.672 sec  (  0.6%)
Orbital Orthonormalization  ....       0.000 sec  (  0.0%)
DIIS solution               ....      10.046 sec  (  2.2%)
SOSCF solution              ....       5.246 sec  (  1.2%)
Finished LeanSCF after 451.1 sec

Maximum memory used throughout the entire LEANSCF-calculation: 409.8 MB


           ************************************************************
           *        Program running with 10 parallel MPI-processes    *
           *              working on a common directory               *
           ************************************************************

------------------------------------------------------------------------------
                                ORCA  MP2 
------------------------------------------------------------------------------

Freezing NCore=22 chemical core electrons

-------------
RI-MP2 ENERGY
-------------
Dimension of the orbital basis            ... 1816
Dimension of the AuxC basis               ... 4179
Memory devoted to MP2                     ... 2000 MB   
Data format for matrix containers         ... DOUBLE
Compression type for matrix containers    ... UNCOMPRESSED
Scaling for aa/bb pairs                   ...   5.660e-02
Scaling for ab pairs                      ...   5.935e-01
Overall scaling of the MP2 energy         ...   1.000e+00

-----------------------
SHARK RI TRANSFORMATION
-----------------------

Number of basis functions                ...   1816
Number of aux functions                  ...   4179
Number of operators                      ...      1
Generation of IJK                        ... NO
Generation of IAK                        ... YES
Generation of ABK                        ... NO
Orbital Range Operator  0:   11-  32 to   33-1815

Aux basis identifier                     ...   AUXC
Contraction scheme used                  ... SEGMENTED
Do orthogonalization                     ... YES
All operator combinations                ... NO
Transpose (ia|K)                         ... NO
Integral generator used                  ... LIBINT
Starting integral generation + trafo... 
Half trafo (segmented) done. Total time = 35.0 sec. integrals=  9.5 sec trafo= 13.5 sec
Integral generation and half transformation done ( 35.0 sec)

Reading or making V^(-1/2)          ... done (  0.2 sec)
Sorting IAK integrals               ... done (  9.3 sec)

SHARK RI integral transformation done. Total time = 44.5 sec.

Opening buffers                              ... done

Starting loop over batches of integrals:

Operator 0  - window                       ... ( 11- 32)x( 33-1815)
Operator 0  - Memory available             ...  2000 MB
Operator 0  - Memory needed per MO         ...  56.8 MB
Operator 0  - Number of orbitals per batch ... 3
Operator 0  - Number of batches            ... 1

OPERATOR  0   PASS   0:  MOs    11 ...   13 +   14 ...   16 +   17 ...   19 +   20 ...   22
                            +   23 ...   25 +   26 ...   28 +   29 ...   31 +   32 ...   32
  Reading integrals       ... ok
  Internal MO  13
Time spent in pair loops =    63.722 sec
Deleting buffers (Ka|jb) ...done

-----------------------------------------------
 RI-MP2 CORRELATION ENERGY:     -0.809968416 Eh
-----------------------------------------------


-------
TIMINGS
-------

Total time                :  116.184 sec
Integral trafo            :   44.603 sec ( 38.4%)
I/O of integrals          :    0.099 sec (  0.1%)
K(i,j) operators          :    2.563 sec (  2.2%)
T(i,j) pair energies      :    0.214 sec (  0.2%)
V**(-1/2)                 :    7.858 sec (  6.8%)


---------------------------------------
MP2 TOTAL ENERGY:     -721.665073786 Eh
---------------------------------------

Maximum memory used throughout the entire MP2-calculation: 589.5 MB


-------------------------------------------------------------------------------
                          DFT DISPERSION CORRECTION                            
                                                                               
                                DFTD4 V3.4.0                                   
-------------------------------------------------------------------------------
The REV-DSD-PBEP86-2021 functional is recognized
A user input s6-coefficient scaling factor has been recognized
A user input a1-coefficient scaling factor has been recognized
A user input s8-coefficient scaling factor has been recognized
A user input a2-coefficient scaling factor has been recognized
A user input s9-coefficient scaling factor has been recognized
Active option DFTDOPT                   ...         5   

-------------------------   ----------------
Dispersion correction           -0.008074511
-------------------------   ----------------


-------------------------   --------------------
FINAL SINGLE POINT ENERGY      -721.673148296457
-------------------------   --------------------



           ************************************************************
           *        Program running with 10 parallel MPI-processes    *
           *              working on a common directory               *
           ************************************************************

------------------------------------------------------------------------------
                              ORCA PROPERTY CALCULATIONS
------------------------------------------------------------------------------

GBWName                                 ... pg1_frag.gbw
Number of atoms                         ...     37
Number of basis functions               ...   1816
Max core memory                         ...   2000 MB

Electric properties:
Dipole moment                           ... YES
Quadrupole moment                       ...  NO
Static polarizability (Dipole/Dipole)   ...  NO
Static polarizability (Dipole/Quad.)    ...  NO
Static polarizability (Quad./Quad.)     ...  NO
Static polarizability (Velocity)        ...  NO

Atomic electric properties:
Dipole moment                           ...  NO
Quadrupole moment                       ...  NO
Static polarizability                   ...  NO

Choice of electric origin               ... Center of mass
Position of electric origin             ...    -4.438789    -3.304132     8.743910

General magnetic properties:
Magnetizability                         ...  NO

EPR properties:
g-Tensor (aka g-matrix)                 ...  NO
Zero-Field splitting spin-orbit         ...  NO
Zero-field splitting spin-spin          ...  NO
Hyperfine couplings                     ...  NO (   0 nuclei)
Quadrupole couplings                    ...  NO (   0 nuclei)
Contact density                         ...  NO (   0 nuclei)

NMR properties:
Chemical shifts                         ...  NO (   0 nuclei)
Spin-rotation constants                 ...  NO (   0 nuclei)
Spin-spin couplings                     ...  NO (   0 nuclei,    0 pairs)

Choice of magnetic origin               ... GIAO
Position of magnetic origin             ...     0.000000     0.000000     0.000000

Properties with geometric perturbations:
SCF Hessian                             ...  NO
IR spectrum                             ...  NO
VCD spectrum                            ...  NO
X-ray spectroscopy properties:
SCF XES/XAS/RIXS spectra                ...  NO


-------------
DIPOLE MOMENT
-------------

Method             : SCF
Type of density    : Electron Density
Multiplicity       :   1
Irrep              :   0
Energy             :  -720.8551053698877240 Eh
Relativity type    : 
Basis              : AO
                                X                 Y                 Z
Electronic contribution:      2.766487480       1.234600139       1.062303649
Nuclear contribution   :     -4.715107227      -1.922522872      -0.769246770
                        -----------------------------------------
Total Dipole Moment    :     -1.948619747      -0.687922733       0.293056879
                        -----------------------------------------
Magnitude (a.u.)       :      2.087160497
Magnitude (Debye)      :      5.305140377



--------------------
Rotational spectrum 
--------------------
 
Rotational constants in cm-1:             0.120711             0.057347             0.052932 
Rotational constants in MHz :          3618.813405          1719.205343          1586.875222 

Dipole components along the rotational axes: 
x,y,z [a.u.] :     0.086915    -2.055198     0.353333 
x,y,z [Debye]:     0.220921    -5.223899     0.898102 

 

Dipole moment calculation done in   0.2 sec 

Maximum memory used throughout the entire PROP-calculation: 269.6 MB

--------------------------------
SUGGESTED CITATIONS FOR THIS RUN
--------------------------------

Below you find a list of papers that are relevant to this ORCA run
We neither can nor want to force you to cite these papers, but we appreciate if you do
You receive ORCA, which is the product of decades of hard work by many enthusiastic individuals, for free
The only thing we kindly ask in return is that you cite our papers,
We deeply appreciate it, if you show your appreciation for ORCA by not just citing the generic ORCA reference.

Please note that relegating all ORCA citations to the supporting information does *not* help us.
SI sections are not indexed - citations you put there will not count into any citation statistics
But we need these citations in order to attract the funding resources that allow us to do what we are doing

Therefore, if you are a happy ORCA user, please consider citing a few of the papers listed below in the main body of your paper

In addition to the list printed below, the program has created the file pg1_frag.bibtex that contains the list in bibtex format
You can import this file easily into all common literature databanks and citation aid programs


List of essential papers. We consider these as the minimum necessary citations

  1. Neese,F.
     Software update: the ORCA program system, version 5.0
     WIRES Comput. Molec. Sci., 2022 12(1)e1606
     doi.org/10.1002/wcms.1606

List of papers to cite with high priority. The work reported in these papers was absolutely
necessary for this run to complete.
Our perspective: the developers of density functionals and basis sets usually get cited in chemistry papers
Good! But without the algorithms to do something with them, the functionals or basis sets would not do anything.
Hence, in our opinion, the algorithm design and method developments papers are equally worthy of getting cited

  1. Neese,F.
     An improvement of the resolution of the identity approximation for the formation of the Coulomb matrix
     J. Comp. Chem., 2003 24(14)1740-1747
     doi.org/10.1002/jcc.10318
  2. Neese,F.; Wennmohs,F.; Hansen,A.; Becker,U.
     Efficient, approximate and parallel Hartree-Fock and hybrid DFT calculations. A 'chain-of-spheres' algorithm for the Hartree-Fock exchange
     Chem. Phys., 2009 356(1-3)98-109
     doi.org/10.1016/j.chemphys.2008.10.036
  3. Kossmann,S.; Neese,F.
     Efficient Structure Optimization with Second-Order Many-Body Perturbation Theory: The RIJCOSX-MP2 Method
     J. Theo. Comp. Chem., 2010 6 2325-2338
     doi.org/10.1021/ct100199k
  4. Garcia-Rates,M.; Neese,F.
     Effect of the Solute Cavity on the Solvation Energy and its Derivatives within the Framework of the Gaussian Charge Scheme
     J. Comput. Chem., 2020 41 922-939
     doi.org/10.1002/jcc.26139
  5. Helmich-Paris,B.; de Souza,B.; Neese,F.; Izsák,R.
     An improved chain of spheres for exchange algorithm
     J. Chem. Phys., 2021 155 104109
     doi.org/doi: 10.1063/5.0058766.
  6. Neese,F.
     The SHARK Integral Generation and Digestion System
     J. Comp. Chem., 2022  1-16
     doi.org/10.1002/jcc.26942
  7. Caldeweyher,E.; Bannwarth,C.; Grimme,S.
     Extension of the D3 dispersion coefficient model
     J. Chem. Phys., 2017 147 034112
     doi.org/10.1063/1.4993215
  8. Caldeweyher,E.; Ehlert,S.; Hansen,A.; Neugebauer,H.; Spicher,S.; Bannwarth,C.; Grimme,S.
     A generally applicable atomic-charge dependent London dispersion correction
     J. Chem. Phys., 2019 150 154122
     doi.org/10.1063/1.5090222
  9. Caldeweyher,E.; Mewes,J.; Ehlert,S.; Grimme,S.
     Extension and evaluation of the D4 London-dispersion model for periodic systems
     Phys. Chem. Chem. Phys., 2020 22(16)8499-8512
     doi.org/10.1039/D0CP00502A
 10. Wittmann,L.; Gordiy,I.; Friede,M.; Helmich-Paris,B.; Grimme,S.; Hansen,A.; Bursch,M.
     Extension of the D3 and D4 London Dispersion Corrections to the full Actinides Series
     Phys. Chem. Chem. Phys., 2024 26(32)21379-21394
     doi.org/https://doi.org/10.1039/D4CP01514B 

List of suggested additional citations. These are papers that are important in the 'surrounding' of 
of this run, or papers that preceded the highly important papers. If you like your results we are grateful for a citation.

  1. Izsak,R.; Neese,F.
     An overlap fitted chain of spheres exchange method
     J. Chem. Phys., 2011 135 144105
     doi.org/10.1063/1.3646921
  2. Izsak,R.; Hansen,A.; Neese,F.
     The resolution of identity and chain of spheres approximations for the LPNO-CCSD singles Fock term
     Molec. Phys., 2012 110 2413-2417
     doi.org/10.1080/00268976.2012.687466
  3. Neese,F.
     The ORCA program system
     WIRES Comput. Molec. Sci., 2012 2(1)73-78
     doi.org/10.1002/wcms.81
  4. Izsak,R.; Neese,F.; Klopper,W.
     Robust fitting techniques in the chain of spheres approximation to the Fock exchange: The role of the complementary space
     J. Chem. Phys., 2013 139 
     doi.org/10.1063/1.4819264
  5. Neese,F.
     Software update: the ORCA program system, version 4.0
     WIRES Comput. Molec. Sci., 2018 8(1)1-6
     doi.org/10.1002/wcms.1327
  6. Neese,F.; Wennmohs,F.; Becker,U.; Riplinger,C.
     The ORCA quantum chemistry program package
     J. Chem. Phys., 2020 152 Art. No. L224108
     doi.org/10.1063/5.0004608

List of optional additional citations

  1. Neese,F.
     Approximate second-order SCF convergence for spin unrestricted wavefunctions
     Chem. Phys. Lett., 2000 325(1-3)93-98
     doi.org/10.1016/s0009-2614(00)00662-x

Timings for individual modules:

Sum of individual times          ...      588.162 sec (=   9.803 min)
Startup calculation              ...       11.751 sec (=   0.196 min)   2.0 %
SCF iterations                   ...      457.139 sec (=   7.619 min)  77.7 %
Property calculations            ...        1.637 sec (=   0.027 min)   0.3 %
MP2 module                       ...      117.634 sec (=   1.961 min)  20.0 %
                             ****ORCA TERMINATED NORMALLY****
TOTAL RUN TIME: 0 days 0 hours 9 minutes 48 seconds 948 msec
