
                                 *****************
                                 * O   R   C   A *
                                 *****************

                                            #,                                       
                                            ###                                      
                                            ####                                     
                                            #####                                    
                                            ######                                   
                                           ########,                                 
                                     ,,################,,,,,                         
                               ,,#################################,,                 
                          ,,##########################################,,             
                       ,#########################################, ''#####,          
                    ,#############################################,,   '####,        
                  ,##################################################,,,,####,       
                ,###########''''           ''''###############################       
              ,#####''   ,,,,##########,,,,          '''####'''          '####       
            ,##' ,,,,###########################,,,                        '##       
           ' ,,###''''                  '''############,,,                           
         ,,##''                                '''############,,,,        ,,,,,,###''
      ,#''                                            '''#######################'''  
     '                                                          ''''####''''         
             ,#######,   #######,   ,#######,      ##                                
            ,#'     '#,  ##    ##  ,#'     '#,    #''#        ,####,   ,####,        
            ##       ##  ##   ,#'  ##            #'  '#       #'       #'  '#        
            ##       ##  #######   ##           ,######,      #####,   #    #        
            '#,     ,#'  ##    ##  '#,     ,#' ,#      #,     #,   #   #,  ,#        
             '#######'   ##     ##  '#######'  #'      '#     '####' # '####'        



                #########################################################
                #                        -***-                          #
                #          Department of theory and spectroscopy        #
                #                                                       #
                #                      Frank Neese                      #
                #                                                       #
                #     Directorship, Architecture, Infrastructure        #
                #                    SHARK, DRIVERS                     #
                #        Core code/Algorithms in most modules           #
                #                                                       #
                #        Max Planck Institute fuer Kohlenforschung      #
                #                Kaiser Wilhelm Platz 1                 #
                #                 D-45470 Muelheim/Ruhr                 #
                #                      Germany                          #
                #                                                       #
                #                  All rights reserved                  #
                #                        -***-                          #
                #########################################################


                         Program Version 6.0.1  -  RELEASE   -


 With contributions from (in alphabetic order):
[Max-Planck-Institut fuer Kohlenforschung]                               
  Daniel Aravena         : Magnetic Suceptibility                        
  Michael Atanasov       : Ab Initio Ligand Field Theory (pilot matlab implementation)
  Alexander A. Auer      : GIAO ZORA, VPT2 properties, NMR spectrum      
  Ute Becker             : All parallelization in ORCA, NUMFREQ, NUMCALC 
  Giovanni Bistoni       : ED, misc. LED, open-shell LED, HFLD           
  Martin Brehm           : Molecular dynamics                            
  Dmytro Bykov           : pre 5.0 version of the SCF Hessian            
  Marcos Casanova-Páez   : Triplet and SCS-CIS(D). UHF-(DLPNO)-IP/EA/STEOM-CCSD. UHF-CVS-IP/STEOM-CCSD   
  Vijay G. Chilkuri      : MRCI spin determinant printing, contributions to CSF-ICE 
  Pauline Colinet        : FMM embedding                                 
  Dipayan Datta          : RHF DLPNO-CCSD density                        
  Achintya Kumar Dutta   : EOM-CC, STEOM-CC                              
  Nicolas Foglia         : Exact transition moments, OPA infrastructure, MCD improvements    
  Dmitry Ganyushin       : Spin-Orbit,Spin-Spin,Magnetic field MRCI      
  Miquel Garcia-Rates    : C-PCM and meta-GGA Hessian, CCSD/C-PCM, Gaussian charge scheme 
  Tiago L. C. Gouveia    : GS-ROHF, GS-ROCIS                             
  Yang Guo               : DLPNO-NEVPT2, F12-NEVPT2, CIM, IAO-localization        
  Andreas Hansen         : Spin unrestricted coupled pair/coupled cluster methods 
  Ingolf Harden          : AUTO-CI MPn and infrastructure                
  Benjamin Helmich-Paris : MC-RPA, TRAH-(SCF,CASSCF), AVAS, COSX integrals, SCF dyn. polar. 
  Lee Huntington         : MR-EOM, pCC                                   
  Robert Izsak           : Overlap fitted RIJCOSX, COSX-SCS-MP3, EOM     
  Riya Kayal             : Wick's Theorem for AUTO-CI, AUTO-CI UHF-CCSDT 
  Emily Kempfer          : AUTO-CI, RHF CISDT and CCSDT                  
  Christian Kollmar      : KDIIS, OOCD, Brueckner-CCSD(T), CCSD density, CASPT2, CASPT2-K, improved NEVPT2 
  Axel Koslowski         : Symmetry handling                             
  Simone Kossmann        : meta-GGA functionals, TD-DFT gradient, OOMP2, (MP2 Hessian; deprecated post 5.0) 
  Lucas Lang             : DCDCAS                                        
  Marvin Lechner         : AUTO-CI (C++ implementation), FIC-MRCC        
  Spencer Leger          : CASSCF response                               
  Dagmar Lenk            : GEPOL surface, SMD, ORCA-2-JSON               
  Dimitrios Liakos       : Extrapolation schemes; Compound Job, initial MDCI parallelization 
  Dimitrios Manganas     : Further ROCIS development; embedding schemes. LFT, Crystal Embedding 
  Dimitrios Pantazis     : SARC Basis sets                               
  Anastasios Papadopoulos: AUTO-CI, single reference methods and gradients 
  Taras Petrenko         : pre 6.0 DFT Hessian and TD-DFT gradient, (ASA, deprecated), ECA, 1-Electron XAS/XES, NRVS 
  Peter Pinski           : DLPNO-MP2, DLPNO-MP2 Gradient                 
  Christoph Reimann      : Effective Core Potentials                     
  Marius Retegan         : Local ZFS, SOC                                
  Christoph Riplinger    : Optimizer, TS searches, QM/MM, DLPNO-CCSD(T), (RO)-DLPNO pert. Triples 
  Michael Roemelt        : Original ROCIS implementation                 
  Masaaki Saitow         : Open-shell DLPNO-CCSD energy and density      
  Barbara Sandhoefer     : DKH picture change effects                    
  Kantharuban Sivalingam : CASSCF convergence/infrastructure, NEVPT2 and variants, FIC-MRCI 
  Bernardo de Souza      : ESD, SOC TD-DFT                               
  Georgi L. Stoychev     : AutoAux, RI-MP2 NMR, DLPNO-MP2 response, X2C  
  Van Anh Tran           : RI-MP2 g-tensors                              
  Willem Van den Heuvel  : Paramagnetic NMR                              
  Zikuan Wang            : NOTCH, Electric field optimization            
  Frank Wennmohs         : Technical directorship and infrastructure     
  Hang Xu                : AUTO-CI-Response properties                   
                                                                         
[FACCTs GmbH]                                                            
  Markus Bursch, Miquel Garcia-Rates, Christoph Riplinger, Bernardo de Souza, Georgi L. Stoychev 
                                                                 
  APM, Basis sets (HGBS, AHGBS, def-TZVP (Ac-Lr), def2-XVPD (La-Lu)), CI-OPT, improved COSX, DLPNO-Multilevel,           
  DOCKER, DRACO, updates on ESD, GOAT, IRC, LR-CPCM, MBIS, meta-GGA TD-DFT gradient, ML-optimized integration grids, 
  MM, NACMEs, nearIR, NEB, NEB-TS, NL-DFT gradient (VV10), 2- and 3-layer-ONIOM, interface openCOSMO-RS, QMMM,   
  Crystal-QMMM, SF, symmetry and pop. for TD-DFT, r2SCAN hybrids, SOLVATOR                                   
                                                                         
[Other institutions]                                                     
  V. Asgeirsson          : NEB                                           
  Christoph Bannwarth    : sTDA-DFT, sTD-DFT, PBEh-3c, B97-3c, D3        
  Sebastian Ehlert       : rSCAN, r2SCAN, r2SCAN-3c, D4, dhf basis sets  
  Marvin Friede          : D4 for Fr, Ra, Ac-Lr                          
  Lars Goerigk           : TD-DFT with DH, B97 family of functionals     
  Stefan Grimme          : VdW corrections, initial TS optimization, DFT functionals, gCP, sTDA/sTD-DF 
  Waldemar Hujo          : DFT-NL                                        
  H. Jonsson             : NEB                                           
  Holger Kruse           : gCP                                           
  Marcel Mueller         : wB97X-3c, vDZP basis set                      
  Hagen Neugebauer       : wr2SCAN                                       
  Tobias Risthaus        : range-separated hybrid DFT                    
  Lukas Wittmann         : regularized MP2, r2SCAN double-hybrids, wr2SCAN        
                                                                         
We gratefully acknowledge several colleagues who have allowed us to      
interface, adapt or use parts of their codes:                            
  Ed Valeev, F. Pavosevic, A. Kumar             : LibInt (2-el integral package), F12 methods 
  Garnet Chan, S. Sharma, J. Yang, R. Olivares  : DMRG                   
  Ulf Ekstrom                                   : XCFun DFT Library      
  Mihaly Kallay                                 : mrcc  (arbitrary order and MRCC methods)
  Frank Weinhold                                : gennbo (NPA and NBO analysis)           
  Simon Mueller                                 : openCOSMO-RS                            
  Christopher J. Cramer and Donald G. Truhlar   : smd solvation model                     
  S Lehtola, MJT Oliveira, MAL Marques          : LibXC Library                           
  Liviu Ungur et al                             : ANISO software                          


 Your calculation uses the libint2 library for the computation of 2-el integrals
 For citations please refer to: http://libint.valeyev.net

 Your ORCA version has been built with support for libXC version: 6.2.2
 For citations please refer to: https://libxc.gitlab.io

 This ORCA versions uses:
   CBLAS   interface :  Fast vector & matrix operations
   LAPACKE interface :  Fast linear algebra routines
   SCALAPACK package :  Parallel linear algebra routines
   Shared memory     :  Shared parallel matrices
   BLAS/LAPACK       :  OpenBLAS 0.3.27  USE64BITINT DYNAMIC_ARCH NO_AFFINITY Haswell SINGLE_THREADED
        Core in use  :  Haswell
   Copyright (c) 2011-2014, The OpenBLAS Project


NOTE: MaxCore=2000 MB was set to SCF,MP2,MDCI,CIPSI,MRCI and CIS
      => If you want to overwrite this, your respective input block should be placed after the MaxCore statement
Your calculation utilizes the atom-pairwise dispersion correction
based on EEQ partial charges (D4)


================================================================================

----- Orbital basis set information -----
Your calculation utilizes the basis: def2-QZVPPD
   F. Weigend and R. Ahlrichs, Phys. Chem. Chem. Phys. 7, 3297 (2005).
   D. Rappoport and F. Furche, J. Chem. Phys. 133, 134105 (2010)
   D. Rappoport, J. Chem. Phys. 155, 124102 (2021).

----- AuxJ basis set information -----
Your calculation utilizes the auxiliary basis: def2/J
   F. Weigend, Phys. Chem. Chem. Phys. 8, 1057 (2006).

----- AuxC basis set information -----
Your calculation utilizes the auxiliary basis: def2-QZVPPD/C
   A. Hellweg, C. Hattig, S. Hofener and W. Klopper, Theor. Chem. Acc. 117, 587 (2007).
  A. Hellweg and D. Rappoport; Phys. Chem. Chem. Phys. 17, 1010 (2015).

================================================================================
                                        WARNINGS
                       Please study these warnings very carefully!
================================================================================


WARNING: No MP2 level density has been requested!
         To calculate MP2 level properties use
         %mp2 Density relaxed end
         or
         %mp2 Density unrelaxed end
         Otherwise for double-hybrid DFT only the energy is correct!

WARNING: The frozen-core approximation is turned on by default for 
         the MP2 part of double-hybrid DFT.

================================================================================
                                       INPUT FILE
================================================================================
NAME = h3_frag.inp
|  1> # ------------------------------------
|  2> # OH_POPG (POPG1 & O2 ghosted); ion pair-pi
|  3> # ------------------------------------
|  4> ! SP revDSD-PBEP86-D4/2021 def2-QZVPPD RIJCOSX def2/J TightSCF CPCM
|  5> %basis
|  6>   basis   "def2-QZVPPD"
|  7>   aux     "def2/J"           # RI-J (for SCF/RIJCOSX)
|  8>   auxC    "def2-QZVPPD/C"    # required for RI-MP2 (AuxC)
|  9> end
| 10> %pal
| 11>     nprocs 10
| 12> end
| 13> %MaxCore 2000
| 14> %cpcm 
| 15>    epsilon 3.0 
| 16> end
| 17> *xyz 0 1
| 18> # POPG1 ghosted
| 19> C:    -5.46300      4.58600      -2.76900
| 20> C:    -2.52600      1.26600      -3.33600
| 21> O:    -4.15900      4.10300      -2.98300
| 22> O:    -1.89600      3.82300      -1.92000
| 23> O:    -4.07900      3.38500      -0.51600
| 24> O:    -3.36900      1.77200      -2.32900
| 25> P:    -3.31700      3.30800      -1.80300
| 26> H:    -2.75600      0.21400      -3.50900
| 27> H:    -2.68200      1.82800      -4.25700
| 28> H:    -1.48700      1.36400      -3.02300
| 29> H:    -5.82400      5.07300      -3.67500
| 30> H:    -5.45500      5.30400      -1.94900
| 31> H:    -6.12200      3.75500      -2.51600
| 32> # Orn2 ghosted
| 33> C:    -1.78200      4.40500       1.95200
| 34> C:    -1.94400      5.91200       1.79200
| 35> H:    -0.99400      6.43000       2.01400
| 36> H:    -2.65800      6.27300       2.54800
| 37> C:    -2.48600      6.40500       0.46000
| 38> H:    -2.66700      7.48800       0.50800
| 39> H:    -3.43700      5.90700       0.22100
| 40> N:    -1.57700      6.15200      -0.67800
| 41> H:    -1.84000      6.72600      -1.49600
| 42> H:    -0.58000      6.27900      -0.44800
| 43> H:    -1.66800      5.15900      -1.05700
| 44> H:    -2.72800      3.91200       1.72900
| 45> H:    -1.48800      4.17900       2.97700
| 46> H:    -1.01500      4.04700       1.26700
| 47> # His3
| 48> C      0.51500     -0.46800       2.19100
| 49> N     -1.32900      0.74700       0.92500
| 50> N     -3.13300     -0.11800       1.83400
| 51> H     -4.11300     -0.28500       2.02500
| 52> C     -0.94700     -0.20000       1.85200
| 53> C     -2.64600      0.77400       0.94500
| 54> H     -3.28600      1.43400       0.35400
| 55> C     -2.06800     -0.75000       2.42400
| 56> H     -2.19200     -1.51600       3.18700
| 57> H      0.57600     -1.25200       2.94500
| 58> H      0.97100      0.44400       2.57700
| 59> H      1.04300     -0.78600       1.29200
| 60> *
| 61> 
| 62> 
| 63> 
| 64>                          ****END OF INPUT****
================================================================================

                       ****************************
                       * Single Point Calculation *
                       ****************************

---------------------------------
CARTESIAN COORDINATES (ANGSTROEM)
---------------------------------
  C     -5.463000    4.586000   -2.769000
  C     -2.526000    1.266000   -3.336000
  O     -4.159000    4.103000   -2.983000
  O     -1.896000    3.823000   -1.920000
  O     -4.079000    3.385000   -0.516000
  O     -3.369000    1.772000   -2.329000
  P     -3.317000    3.308000   -1.803000
  H     -2.756000    0.214000   -3.509000
  H     -2.682000    1.828000   -4.257000
  H     -1.487000    1.364000   -3.023000
  H     -5.824000    5.073000   -3.675000
  H     -5.455000    5.304000   -1.949000
  H     -6.122000    3.755000   -2.516000
  C     -1.782000    4.405000    1.952000
  C     -1.944000    5.912000    1.792000
  H     -0.994000    6.430000    2.014000
  H     -2.658000    6.273000    2.548000
  C     -2.486000    6.405000    0.460000
  H     -2.667000    7.488000    0.508000
  H     -3.437000    5.907000    0.221000
  N     -1.577000    6.152000   -0.678000
  H     -1.840000    6.726000   -1.496000
  H     -0.580000    6.279000   -0.448000
  H     -1.668000    5.159000   -1.057000
  H     -2.728000    3.912000    1.729000
  H     -1.488000    4.179000    2.977000
  H     -1.015000    4.047000    1.267000
  C      0.515000   -0.468000    2.191000
  N     -1.329000    0.747000    0.925000
  N     -3.133000   -0.118000    1.834000
  H     -4.113000   -0.285000    2.025000
  C     -0.947000   -0.200000    1.852000
  C     -2.646000    0.774000    0.945000
  H     -3.286000    1.434000    0.354000
  C     -2.068000   -0.750000    2.424000
  H     -2.192000   -1.516000    3.187000
  H      0.576000   -1.252000    2.945000
  H      0.971000    0.444000    2.577000
  H      1.043000   -0.786000    1.292000

----------------------------
CARTESIAN COORDINATES (A.U.)
----------------------------
  NO LB      ZA    FRAG     MASS         X           Y           Z
   0 C     0.0000    0     0.000  -10.323574    8.666284   -5.232652
   1 C     0.0000    0     0.000   -4.773448    2.392393   -6.304126
   2 O     0.0000    0     0.000   -7.859371    7.753546   -5.637053
   3 O     0.0000    0     0.000   -3.582921    7.224423   -3.628274
   4 O     0.0000    0     0.000   -7.708193    6.396723   -0.975099
   5 O     0.0000    0     0.000   -6.366487    3.348595   -4.401172
   6 P     0.0000    0     0.000   -6.268222    6.251214   -3.407176
   7 H     0.0000    0     0.000   -5.208085    0.404401   -6.631049
   8 H     0.0000    0     0.000   -5.068245    3.454419   -8.044564
   9 H     0.0000    0     0.000   -2.810023    2.577586   -5.712642
  10 H     0.0000    0     0.000  -11.005765    9.586581   -6.944744
  11 H     0.0000    0     0.000  -10.308456   10.023107   -3.683076
  12 H     0.0000    0     0.000  -11.568903    7.095922   -4.754551
  13 C     0.0000    0     0.000   -3.367492    8.324244    3.688745
  14 C     0.0000    0     0.000   -3.673628   11.172061    3.386389
  15 H     0.0000    0     0.000   -1.878388   12.150939    3.805908
  16 H     0.0000    0     0.000   -5.022892   11.854252    4.815022
  17 C     0.0000    0     0.000   -4.697859   12.103696    0.869274
  18 H     0.0000    0     0.000   -5.039900   14.150269    0.959981
  19 H     0.0000    0     0.000   -6.494989   11.162612    0.417629
  20 N     0.0000    0     0.000   -2.980098   11.625595   -1.281234
  21 H     0.0000    0     0.000   -3.477096   12.710298   -2.827030
  22 H     0.0000    0     0.000   -1.096041   11.865590   -0.846597
  23 H     0.0000    0     0.000   -3.152063    9.749097   -1.997441
  24 H     0.0000    0     0.000   -5.155173    7.392609    3.267336
  25 H     0.0000    0     0.000   -2.811912    7.897166    5.625715
  26 H     0.0000    0     0.000   -1.918072    7.647722    2.394283
  27 C     6.0000    0    12.011    0.973209   -0.884392    4.140390
  28 N     7.0000    0    14.007   -2.511446    1.411625    1.747997
  29 N     7.0000    0    14.007   -5.920512   -0.222988    3.465758
  30 H     1.0000    0     1.008   -7.772444   -0.538572    3.826695
  31 C     6.0000    0    12.011   -1.789571   -0.377945    3.499773
  32 C     6.0000    0    12.011   -5.000215    1.462648    1.785791
  33 H     1.0000    0     1.008   -6.209640    2.709867    0.668963
  34 C     6.0000    0    12.011   -3.907954   -1.417295    4.580696
  35 H     1.0000    0     1.008   -4.142280   -2.864825    6.022557
  36 H     1.0000    0     1.008    1.088482   -2.365937    5.565243
  37 H     1.0000    0     1.008    1.834924    0.839038    4.869824
  38 H     1.0000    0     1.008    1.970984   -1.485325    2.441526

--------------------------------
INTERNAL COORDINATES (ANGSTROEM)
--------------------------------
 C      0   0   0     0.000000000000     0.00000000     0.00000000
 C      1   0   0     4.468764706270     0.00000000     0.00000000
 O      1   2   0     1.406947404845    27.93442364     0.00000000
 O      3   1   2     2.515857309149   143.86389600   250.26777733
 O      3   1   2     2.570605570678    88.78286457   285.47474518
 O      2   1   3     1.407385519323    41.27413371   113.53939510
 P      5   3   1     1.497645485420    37.39016720   173.37779778
 H      2   1   3     1.090657141360   126.73610183   190.91255864
 H      2   1   3     1.090147237762    68.29313345   289.55192734
 H      2   1   3     1.089538434384   121.56521411    29.67856259
 H      1   2  10     1.090103664795   116.36575573   111.67056297
 H      1   2  10     1.089948622642   125.45320138   327.59846935
 H      1   2  10     1.090344440991    81.97784053   219.46982850
 C      5   3   1     3.522447018764   127.72149624   238.65237222
 C     14   5   3     1.524103999076    98.24778941    53.28412360
 H     15  14   5     1.104584989940   110.55927453   211.85328465
 H     15  14   5     1.100751107199   108.73085478    96.56305891
 C     15  14   5     1.520209525033   116.77814133   337.64522316
 H     18  15  14     1.099069606531   109.87714869   173.42932309
 H     18  15  14     1.099784524350   110.60113217    53.97110001
 N     18  15  14     1.478287522778   113.56388907   294.07981248
 H     21  18  15     1.033329086013   110.96655080   196.31745090
 H     21  18  15     1.031037341710   113.69036924   321.94059116
 H     21  18  15     1.066757235738   112.35575593    82.39294774
 H     14   5   3     1.089813745555    32.81626544   166.68176755
 H     14   5   3     1.090016972345   140.77822863   188.41835398
 H     14   5   3     1.088888424036    85.60477640   304.18159820
 C     27  14   5     4.855914023127   114.07475183   263.64222377
 N     28  27  14     2.545450254867    39.94121878    85.93291805
 N     29  28  27     2.197480830406   101.60064765   237.24879045
 H     30  29  28     1.012309241289   159.67268153   178.42936675
 C     29  28  27     1.379152638398    30.37789355   233.70619163
 C     29  28  27     1.317428555938   136.58761784   239.21664079
 H     33  29  28     1.092923144599   126.12594433   175.17636150
 C     30  29  28     1.371768566486    73.85403931   357.94796891
 H     35  30  29     1.088255944160   122.50556025   179.82737804
 H     28  27  14     1.089446189584   144.92946376   340.07924613
 H     28  27  14     1.090264188167    54.64660511   267.46759262
 H     28  27  14     1.090004128433   105.48259196   164.30502798

---------------------------
INTERNAL COORDINATES (A.U.)
---------------------------
 C      0   0   0     0.000000000000     0.00000000     0.00000000
 C      1   0   0     8.444741451782     0.00000000     0.00000000
 O      1   2   0     2.658745279988    27.93442364     0.00000000
 O      3   1   2     4.754281306316   143.86389600   250.26777733
 O      3   1   2     4.857740526913    88.78286457   285.47474518
 O      2   1   3     2.659573196367    41.27413371   113.53939510
 P      5   3   1     2.830139813148    37.39016720   173.37779778
 H      2   1   3     2.061043303176   126.73610183   190.91255864
 H      2   1   3     2.060079725021    68.29313345   289.55192734
 H      2   1   3     2.058929253367   121.56521411    29.67856259
 H      1   2  10     2.059997384047   116.36575573   111.67056297
 H      1   2  10     2.059704396839   125.45320138   327.59846935
 H      1   2  10     2.060452385116    81.97784053   219.46982850
 C      5   3   1     6.656460186711   127.72149624   238.65237222
 C     14   5   3     2.880139157868    98.24778941    53.28412360
 H     15  14   5     2.087363122626   110.55927453   211.85328465
 H     15  14   5     2.080118134217   108.73085478    96.56305891
 C     15  14   5     2.872779668490   116.77814133   337.64522316
 H     18  15  14     2.076940558460   109.87714869   173.42932309
 H     18  15  14     2.078291557347   110.60113217    53.97110001
 N     18  15  14     2.793558565243   113.56388907   294.07981248
 H     21  18  15     1.952708978779   110.96655080   196.31745090
 H     21  18  15     1.948378209678   113.69036924   321.94059116
 H     21  18  15     2.015879026924   112.35575593    82.39294774
 H     14   5   3     2.059449516081    32.81626544   166.68176755
 H     14   5   3     2.059833559058   140.77822863   188.41835398
 H     14   5   3     2.057700911825    85.60477640   304.18159820
 C     27  14   5     9.176347633577   114.07475183   263.64222377
 N     28  27  14     4.810203869218    39.94121878    85.93291805
 N     29  28  27     4.152636954008   101.60064765   237.24879045
 H     30  29  28     1.912987228875   159.67268153   178.42936675
 C     29  28  27     2.606220783447    30.37789355   233.70619163
 C     29  28  27     2.489579171730   136.58761784   239.21664079
 H     33  29  28     2.065325428716   126.12594433   175.17636150
 C     30  29  28     2.592266909781    73.85403931   357.94796891
 H     35  30  29     2.056505698075   122.50556025   179.82737804
 H     28  27  14     2.058754935959   144.92946376   340.07924613
 H     28  27  14     2.060300729258    54.64660511   267.46759262
 H     28  27  14     2.059809287581   105.48259196   164.30502798

---------------------
BASIS SET INFORMATION
---------------------
There are 5 groups of distinct atoms

 Group   1 Type C   : 16s8p4d2f1g contracted to 8s4p4d2f1g pattern {82111111/5111/1111/11/1}
 Group   2 Type O   : 16s9p4d2f1g contracted to 8s5p4d2f1g pattern {82111111/51111/1111/11/1}
 Group   3 Type P   : 21s14p5d2f1g contracted to 10s6p5d2f1g pattern {10311111111/821111/11111/11/1}
 Group   4 Type H   : 7s4p2d1f contracted to 4s4p2d1f pattern {4111/1111/11/1}
 Group   5 Type N   : 16s8p4d2f1g contracted to 8s4p4d2f1g pattern {82111111/5111/1111/11/1}

Atom   0C    basis set group =>   1
Atom   1C    basis set group =>   1
Atom   2O    basis set group =>   2
Atom   3O    basis set group =>   2
Atom   4O    basis set group =>   2
Atom   5O    basis set group =>   2
Atom   6P    basis set group =>   3
Atom   7H    basis set group =>   4
Atom   8H    basis set group =>   4
Atom   9H    basis set group =>   4
Atom  10H    basis set group =>   4
Atom  11H    basis set group =>   4
Atom  12H    basis set group =>   4
Atom  13C    basis set group =>   1
Atom  14C    basis set group =>   1
Atom  15H    basis set group =>   4
Atom  16H    basis set group =>   4
Atom  17C    basis set group =>   1
Atom  18H    basis set group =>   4
Atom  19H    basis set group =>   4
Atom  20N    basis set group =>   5
Atom  21H    basis set group =>   4
Atom  22H    basis set group =>   4
Atom  23H    basis set group =>   4
Atom  24H    basis set group =>   4
Atom  25H    basis set group =>   4
Atom  26H    basis set group =>   4
Atom  27C    basis set group =>   1
Atom  28N    basis set group =>   5
Atom  29N    basis set group =>   5
Atom  30H    basis set group =>   4
Atom  31C    basis set group =>   1
Atom  32C    basis set group =>   1
Atom  33H    basis set group =>   4
Atom  34C    basis set group =>   1
Atom  35H    basis set group =>   4
Atom  36H    basis set group =>   4
Atom  37H    basis set group =>   4
Atom  38H    basis set group =>   4
---------------------------------
AUXILIARY/J BASIS SET INFORMATION
---------------------------------
There are 5 groups of distinct atoms

 Group   1 Type C   : 12s5p4d2f1g contracted to 6s4p3d1f1g pattern {711111/2111/211/2/1}
 Group   2 Type O   : 12s5p4d2f1g contracted to 6s4p3d1f1g pattern {711111/2111/211/2/1}
 Group   3 Type P   : 14s5p5d2f1g contracted to 8s4p3d1f1g pattern {71111111/2111/311/2/1}
 Group   4 Type H   : 5s2p1d contracted to 3s1p1d pattern {311/2/1}
 Group   5 Type N   : 12s5p4d2f1g contracted to 6s4p3d1f1g pattern {711111/2111/211/2/1}

Atom   0C    basis set group =>   1
Atom   1C    basis set group =>   1
Atom   2O    basis set group =>   2
Atom   3O    basis set group =>   2
Atom   4O    basis set group =>   2
Atom   5O    basis set group =>   2
Atom   6P    basis set group =>   3
Atom   7H    basis set group =>   4
Atom   8H    basis set group =>   4
Atom   9H    basis set group =>   4
Atom  10H    basis set group =>   4
Atom  11H    basis set group =>   4
Atom  12H    basis set group =>   4
Atom  13C    basis set group =>   1
Atom  14C    basis set group =>   1
Atom  15H    basis set group =>   4
Atom  16H    basis set group =>   4
Atom  17C    basis set group =>   1
Atom  18H    basis set group =>   4
Atom  19H    basis set group =>   4
Atom  20N    basis set group =>   5
Atom  21H    basis set group =>   4
Atom  22H    basis set group =>   4
Atom  23H    basis set group =>   4
Atom  24H    basis set group =>   4
Atom  25H    basis set group =>   4
Atom  26H    basis set group =>   4
Atom  27C    basis set group =>   1
Atom  28N    basis set group =>   5
Atom  29N    basis set group =>   5
Atom  30H    basis set group =>   4
Atom  31C    basis set group =>   1
Atom  32C    basis set group =>   1
Atom  33H    basis set group =>   4
Atom  34C    basis set group =>   1
Atom  35H    basis set group =>   4
Atom  36H    basis set group =>   4
Atom  37H    basis set group =>   4
Atom  38H    basis set group =>   4
---------------------------------
AUXILIARY/C BASIS SET INFORMATION
---------------------------------
There are 5 groups of distinct atoms

 Group   1 Type C   : 10s9p8d6f3g1h contracted to 10s9p8d6f3g1h pattern {1111111111/111111111/11111111/111111/111/1}
 Group   2 Type O   : 10s9p8d6f3g1h contracted to 10s9p8d6f3g1h pattern {1111111111/111111111/11111111/111111/111/1}
 Group   3 Type P   : 13s11p10d7f3g1h contracted to 13s11p10d7f3g1h pattern {1111111111111/11111111111/1111111111/1111111/111/1}
 Group   4 Type H   : 7s5p4d2f1g contracted to 7s5p4d2f1g pattern {1111111/11111/1111/11/1}
 Group   5 Type N   : 10s9p8d6f3g1h contracted to 10s9p8d6f3g1h pattern {1111111111/111111111/11111111/111111/111/1}

Atom   0C    basis set group =>   1
Atom   1C    basis set group =>   1
Atom   2O    basis set group =>   2
Atom   3O    basis set group =>   2
Atom   4O    basis set group =>   2
Atom   5O    basis set group =>   2
Atom   6P    basis set group =>   3
Atom   7H    basis set group =>   4
Atom   8H    basis set group =>   4
Atom   9H    basis set group =>   4
Atom  10H    basis set group =>   4
Atom  11H    basis set group =>   4
Atom  12H    basis set group =>   4
Atom  13C    basis set group =>   1
Atom  14C    basis set group =>   1
Atom  15H    basis set group =>   4
Atom  16H    basis set group =>   4
Atom  17C    basis set group =>   1
Atom  18H    basis set group =>   4
Atom  19H    basis set group =>   4
Atom  20N    basis set group =>   5
Atom  21H    basis set group =>   4
Atom  22H    basis set group =>   4
Atom  23H    basis set group =>   4
Atom  24H    basis set group =>   4
Atom  25H    basis set group =>   4
Atom  26H    basis set group =>   4
Atom  27C    basis set group =>   1
Atom  28N    basis set group =>   5
Atom  29N    basis set group =>   5
Atom  30H    basis set group =>   4
Atom  31C    basis set group =>   1
Atom  32C    basis set group =>   1
Atom  33H    basis set group =>   4
Atom  34C    basis set group =>   1
Atom  35H    basis set group =>   4
Atom  36H    basis set group =>   4
Atom  37H    basis set group =>   4
Atom  38H    basis set group =>   4


           ************************************************************
           *        Program running with 10 parallel MPI-processes    *
           *              working on a common directory               *
           ************************************************************
------------------------------------------------------------------------------
                             ORCA STARTUP CALCULATIONS
                           -- RI-GTO INTEGRALS CHOSEN --
------------------------------------------------------------------------------
------------------------------------------------------------------------------
                   ___                                                        
                  /   \      - P O W E R E D   B Y -                         
                 /     \                                                     
                 |  |  |   _    _      __       _____    __    __             
                 |  |  |  | |  | |    /  \     |  _  \  |  |  /  |          
                  \  \/   | |  | |   /    \    | | | |  |  | /  /          
                 / \  \   | |__| |  /  /\  \   | |_| |  |  |/  /          
                |  |  |   |  __  | /  /__\  \  |    /   |      \           
                |  |  |   | |  | | |   __   |  |    \   |  |\   \          
                \     /   | |  | | |  |  |  |  | |\  \  |  | \   \       
                 \___/    |_|  |_| |__|  |__|  |_| \__\ |__|  \__/        
                                                                              
                      - O R C A' S   B I G   F R I E N D -                    
                                      &                                       
                       - I N T E G R A L  F E E D E R -                       
                                                                              
 v1 FN, 2020, v2 2021, v3 2022-2024                                           
------------------------------------------------------------------------------


----------------------
SHARK INTEGRAL PACKAGE
----------------------

Number of atoms                             ...     39
Number of basis functions                   ...   1822
Number of shells                            ...    574
Maximum angular momentum                    ...      4
Integral batch strategy                     ... SHARK/LIBINT Hybrid
RI-J (if used) integral strategy            ... SPLIT-RIJ (Revised 2003 algorithm where possible)
Printlevel                                  ...      1
Contraction scheme used                     ... SEGMENTED contraction
Prescreening option                         ... SCHWARTZ
   Thresh                                   ... 2.500e-11
   Tcut                                     ... 2.500e-12
   Tpresel                                  ... 2.500e-12 
Coulomb Range Separation                    ... NOT USED
Exchange Range Separation                   ... NOT USED
Multipole approximations                    ... NOT USED
Finite Nucleus Model                        ... NOT USED
CABS basis                                  ... NOT available
Auxiliary Coulomb fitting basis             ... AVAILABLE
   # of basis functions in Aux-J            ...   1077
   # of shells in Aux-J                     ...    367
   Maximum angular momentum in Aux-J        ...      4
Auxiliary J/K fitting basis                 ... NOT available
Auxiliary Correlation fitting basis         ... AVAILABLE
   # of basis functions in Aux-C            ...   4125
   # of shells in Aux-C                     ...   1055
   Maximum angular momentum in Aux-C        ...      5
Auxiliary 'external' fitting basis          ... NOT available

Checking pre-screening integrals            ... done (  0.0 sec) Dimension = 574
Check shell pair data                       ... done (  0.0 sec)
Shell pair information
Shell pair cut-off parameter TPreSel        ...   2.5e-12
Total number of shell pairs                 ...    165025
Shell pairs after pre-screening             ...    109363
Total number of primitive shell pairs       ...    363359
Primitive shell pairs kept                  ...    177686
          la=0 lb=0:  16769 shell pairs
          la=1 lb=0:  26143 shell pairs
          la=1 lb=1:  10149 shell pairs
          la=2 lb=0:  16537 shell pairs
          la=2 lb=1:  12999 shell pairs
          la=2 lb=2:   4141 shell pairs
          la=3 lb=0:   7049 shell pairs
          la=3 lb=1:   5814 shell pairs
          la=3 lb=2:   3470 shell pairs
          la=3 lb=3:    711 shell pairs
          la=4 lb=0:   2183 shell pairs
          la=4 lb=1:   1801 shell pairs
          la=4 lb=2:   1095 shell pairs
          la=4 lb=3:    426 shell pairs
          la=4 lb=4:     76 shell pairs

Calculating one electron integrals          ... done (  0.2 sec)
Calculating RI/J V-Matrix + Cholesky decomp.... done (  0.0 sec)
Calculating RI/C V-Matrix + Cholesky decomp.... done (  0.7 sec)
Calculating Nuclear repulsion               ... done (  0.0 sec) ENN=    223.845085580544 Eh

Diagonalization of the overlap matrix:
Smallest eigenvalue                        ... 5.332e-08
Time for diagonalization                   ...    0.501 sec
Threshold for overlap eigenvalues          ... 1.000e-07
Number of eigenvalues below threshold      ... 2
Smallest eigenvalue above threshold        ... 1.087e-07

IMPORTANT:
Smallest eigenvalue of S below the DiffSThresh (1.000e-06) while
Thresh>1e-12 and/or TCut>1e-13! In order to avoid SCF convergence issues,
Thresh will be set to at least 1e-12 and TCut to at least 1e-13.
This can be turned off by adding %SCF DiffSThresh -1 END to the input.

Time for construction of square roots      ...    0.315 sec
Total time needed                          ...    0.841 sec

-------------------
DFT GRID GENERATION
-------------------

General Integration Accuracy     IntAcc      ... 4.388
Radial Grid Type                 RadialGrid  ... OptM3 with GC (2021)
Angular Grid (max. ang.)         AngularGrid ... 4 (Lebedev-302)
Angular grid pruning method      GridPruning ... 4 (adaptive)
Weight generation scheme         WeightScheme... mBecke (2022)
Basis function cutoff            BFCut       ... 1.0000e-11
Integration weight cutoff        WCut        ... 1.0000e-14
Partially contracted basis set               ... off
Rotationally invariant grid construction     ... off
Angular grids for H and He will be reduced by one unit
Diffuse basis detected: some atoms will have their outermost
                        angular grid increased by 1.

Total number of grid points                  ...   181971
Total number of batches                      ...     2860
Average number of points per batch           ...       63
Average number of grid points per atom       ...     4666

--------------------
COSX GRID GENERATION
--------------------

GRIDX 1
-------
General Integration Accuracy     IntAcc      ... 3.816
Radial Grid Type                 RadialGrid  ... OptM3 with GC (2021)
Angular Grid (max. ang.)         AngularGrid ... 1 (Lebedev-50)
Angular grid pruning method      GridPruning ... 4 (adaptive)
Weight generation scheme         WeightScheme... mBecke (2022)
Basis function cutoff            BFCut       ... 1.0000e-11
Integration weight cutoff        WCut        ... 1.0000e-14
Partially contracted basis set               ... on
Rotationally invariant grid construction     ... off
Angular grids for H and He will be reduced by one unit
Diffuse basis detected: some atoms will have their outermost
                        angular grid increased by 1.

Total number of grid points                  ...    23721
Total number of batches                      ...      209
Average number of points per batch           ...      113
Average number of grid points per atom       ...      608
UseSFitting                                  ... on

GRIDX 2
-------
General Integration Accuracy     IntAcc      ... 4.020
Radial Grid Type                 RadialGrid  ... OptM3 with GC (2021)
Angular Grid (max. ang.)         AngularGrid ... 2 (Lebedev-110)
Angular grid pruning method      GridPruning ... 4 (adaptive)
Weight generation scheme         WeightScheme... mBecke (2022)
Basis function cutoff            BFCut       ... 1.0000e-11
Integration weight cutoff        WCut        ... 1.0000e-14
Partially contracted basis set               ... on
Rotationally invariant grid construction     ... off
Angular grids for H and He will be reduced by one unit
Diffuse basis detected: some atoms will have their outermost
                        angular grid increased by 1.

Total number of grid points                  ...    52645
Total number of batches                      ...      432
Average number of points per batch           ...      121
Average number of grid points per atom       ...     1350
UseSFitting                                  ... on

GRIDX 3
-------
General Integration Accuracy     IntAcc      ... 4.338
Radial Grid Type                 RadialGrid  ... OptM3 with GC (2021)
Angular Grid (max. ang.)         AngularGrid ... 3 (Lebedev-194)
Angular grid pruning method      GridPruning ... 4 (adaptive)
Weight generation scheme         WeightScheme... mBecke (2022)
Basis function cutoff            BFCut       ... 1.0000e-11
Integration weight cutoff        WCut        ... 1.0000e-14
Partially contracted basis set               ... on
Rotationally invariant grid construction     ... off
Angular grids for H and He will be reduced by one unit
Diffuse basis detected: some atoms will have their outermost
                        angular grid increased by 1.

Total number of grid points                  ...   117433
Total number of batches                      ...      935
Average number of points per batch           ...      125
Average number of grid points per atom       ...     3011
UseSFitting                                  ... on
Initializing property integral containers    ... done (  0.0 sec)

SHARK setup successfully completed in  10.3 seconds

Maximum memory used throughout the entire STARTUP-calculation: 259.6 MB


           ************************************************************
           *        Program running with 10 parallel MPI-processes    *
           *              working on a common directory               *
           ************************************************************
-------------------------------------------------------------------------------
                                 ORCA GUESS
                   Start orbitals & Density for SCF / CASSCF
-------------------------------------------------------------------------------

------------
SCF SETTINGS
------------
Hamiltonian:
 Density Functional     Method          .... DFT(GTOs)
 Exchange Functional    Exchange        .... PBE
   PBE kappa parameter   XKappa         ....  0.804000
   PBE mue parameter    XMuePBE         ....  0.219520
 Correlation Functional Correlation     .... P86
 LDA part of GGA corr.  LDAOpt          .... VWN-5
 Gradients option       PostSCFGGA      .... off
 Hybrid DFT is turned on
   Fraction HF Exchange ScalHFX         ....  0.690000
   Scaling of DF-GGA-X  ScalDFX         ....  0.310000
   Scaling of DF-GGA-C  ScalDFC         ....  0.422400
   Scaling of DF-LDA-C  ScalLDAC        ....  0.422400
   Perturbative correction              ....  1.000000
 RI-approximation to the Coulomb term is turned on
   Number of AuxJ basis functions       .... 1077
   RIJ-COSX (HFX calculated with COS-X)).... on


General Settings:
 Integral files         IntName         .... h3_frag
 Hartree-Fock type      HFTyp           .... RHF
 Total Charge           Charge          ....    0
 Multiplicity           Mult            ....    1
 Number of Electrons    NEL             ....   44
 Basis Dimension        Dim             .... 1822
 Nuclear Repulsion      ENuc            ....    223.8450855805 Eh

Convergence Acceleration:
 AO-DIIS                CNVDIIS         .... on
   Start iteration      DIISMaxIt       ....    12
   Startup error        DIISStart       ....  0.200000
   # of expansion vecs  DIISMaxEq       ....     5
   Bias factor          DIISBfac        ....   1.050
   Max. coefficient     DIISMaxC        ....  10.000
 MO-DIIS                CNVKDIIS        .... off
 Trust-Rad. Augm. Hess. CNVTRAH         .... auto
   Auto Start mean grad. ratio tolernc. ....  1.125000
   Auto Start start iteration           ....    50
   Auto Start num. interpolation iter.  ....    10
   Max. Number of Micro iterations      ....    24
   Max. Number of Macro iterations      .... Maxiter - #DIIS iter
   Number of Davidson start vectors     ....     2
   Converg. threshold    (grad. norm)   ....   1.000e-05
   Grad. Scal. Fac. for Micro threshold ....   0.100
   Minimum threshold for Micro iter.    ....   1.000e-02
   NR start threshold (gradient norm)   ....   1.000e-04
   Initial trust radius                 ....   0.400
   Minimum AH scaling param. (alpha)    ....   1.000
   Maximum AH scaling param. (alpha)    .... 1000.000
   Quad. conv. algorithm                .... NR
   White noise on init. David. guess    .... on
   Maximum white noise                  ....   0.010
   Pseudo random numbers                .... off
   Inactive MOs                         .... canonical
   Orbital update algorithm             .... Taylor
   Preconditioner                       .... Diag
   Full preconditioner red. dimension   ....   250
 SOSCF                  CNVSOSCF        .... on
   Start iteration      SOSCFMaxIt      ....   150
   Startup grad/error   SOSCFStart      ....  0.003300
   Hessian update       SOSCFHessUp     .... L-BFGS
 Level Shifting         CNVShift        .... on
   Level shift para.    LevelShift      ....    0.2500
   Turn off err/grad.   ShiftErr        ....    0.0010
 Zerner damping         CNVZerner       .... off
 Static damping         CNVDamp         .... on
   Fraction old density DampFac         ....    0.7000
   Max. Damping (<1)    DampMax         ....    0.9800
   Min. Damping (>=0)   DampMin         ....    0.0000
   Turn off err/grad.   DampErr         ....    0.1000

SCF Procedure:
 Maximum # iterations   MaxIter         ....   125
 SCF integral mode      SCFMode         .... Direct
   Integral package                     .... SHARK and LIBINT hybrid scheme
 Reset frequency        DirectResetFreq ....    20
 Integral Threshold     Thresh          ....  1.000e-12 Eh
 Primitive CutOff       TCut            ....  1.000e-13 Eh

Convergence Tolerance:
 Convergence Check Mode ConvCheckMode   .... Total+1el-Energy
 Convergence forced     ConvForced      .... 0
 Energy Change          TolE            ....  1.000e-08 Eh
 1-El. energy change                    ....  1.000e-05 Eh
 Orbital Gradient       TolG            ....  1.000e-05
 Orbital Rotation angle TolX            ....  1.000e-05
 DIIS Error             TolErr          ....  5.000e-07

------------------------------
INITIAL GUESS: MODEL POTENTIAL
------------------------------
Loading Hartree-Fock densities                     ... done
Calculating cut-offs                               ... done
Initializing the effective Hamiltonian             ... done
Setting up the integral package (SHARK)            ... done
Starting the Coulomb interaction                   ... done (   0.6 sec)
Making the grid                                    ... done (   0.3 sec)
Mapping shells                                     ... done
Starting the XC term evaluation                    ... done (   1.0 sec)
  promolecular density results
     # of electrons  =     43.998535340
     EX              =    -35.314903526
     EC              =      0.018717768
     EX+EC           =    -35.296185758
Transforming the Hamiltonian                       ... done (   0.3 sec)
Diagonalizing the Hamiltonian                      ... done (   0.6 sec)
Back transforming the eigenvectors                 ... done (   0.2 sec)
Now organizing SCF variables                       ... done
                      ------------------
                      INITIAL GUESS DONE (   3.1 sec)
                      ------------------
             **** ENERGY FILE WAS UPDATED (h3_frag.en.tmp) ****
Finished Guess after   4.5 sec
Maximum memory used throughout the entire GUESS-calculation: 249.3 MB


           ************************************************************
           *        Program running with 10 parallel MPI-processes    *
           *              working on a common directory               *
           ************************************************************

-------------------------------------------------------------------------------------------
                                      ORCA LEAN-SCF
                              memory conserving SCF solver
-------------------------------------------------------------------------------------------

--------------------
CPCM SOLVATION MODEL
--------------------
CPCM parameters:
  Epsilon                                         ...       3.0000
  Refrac                                          ...       1.3300
  Rsolv                                           ...       1.3000
  Surface type                                    ... GAUSSIAN VDW
  Discretization scheme                           ... Constant charge density
    Threshold for H atoms                         ...       5.0000 (charges/Ang^2)
    Threshold for non-H atoms                     ...       5.0000 (charges/Ang^2)
  Epsilon function type                           ...         CPCM
Solvent:                                          ... CUSTOM
Radii:
  Scheme                                          ... Element-dependent radii
  Radius for C  used is    3.8550 Bohr (=   2.0400 Ang.)
  Radius for O  used is    3.4469 Bohr (=   1.8240 Ang.)
  Radius for P  used is    4.0818 Bohr (=   2.1600 Ang.)
  Radius for H  used is    2.4944 Bohr (=   1.3200 Ang.)
  Radius for N  used is    3.5149 Bohr (=   1.8600 Ang.)
Calculating surface                               ...        done! (  0.0s)
Cavity surface points                             ...         3477
Cavity Volume                                     ...    2240.1049
Cavity Surface-area                               ...    1264.8718
Calculating surface distance matrix               ...        done! (  0.1s)
Performing Cholesky decomposition & store         ...        done! (  0.2s)
Overall time for CPCM initialization              ...                 0.3s

----------------------------------------D-I-I-S--------------------------------------------
Iteration    Energy (Eh)           Delta-E    RMSDP     MaxDP     DIISErr   Damp  Time(sec)
-------------------------------------------------------------------------------------------
               ***  Starting incremental Fock matrix formation  ***
    1    -264.4316072589455189     0.00e+00  3.47e-02  2.26e+01  2.22e-01  0.700  41.4
    2    -264.5016006776079394    -7.00e-02  3.46e-02  2.31e+01  1.25e-01  0.700  26.1
                               ***Turning on AO-DIIS***
    3    -264.5395208095299040    -3.79e-02  2.53e-02  1.76e+01  6.72e-02  0.700  24.4
    4    -264.5625001894965180    -2.30e-02  6.06e-02  4.27e+01  4.36e-02  0.000  23.9
    5    -264.6123770270900195    -4.99e-02  2.33e-03  1.13e+00  4.37e-03  0.000  25.2
                              *** Initializing SOSCF ***
---------------------------------------S-O-S-C-F--------------------------------------
Iteration    Energy (Eh)           Delta-E    RMSDP     MaxDP     MaxGrad    Time(sec)
--------------------------------------------------------------------------------------
    6    -264.6124892030791216    -1.12e-04  6.03e-04  3.28e-01  2.48e-03    23.1
               *** Restarting incremental Fock matrix formation ***
    7    -264.6124884420153194     7.61e-07  2.59e-02  1.57e+01  4.51e-04    42.2
    8    -264.6125043945778543    -1.60e-05  6.06e-03  3.31e+00  9.57e-05    39.5
    9    -264.6125065634064413    -2.17e-06  4.48e-03  2.47e+00  1.41e-04    34.6
   10    -264.6125065824793410    -1.91e-08  8.01e-04  4.77e-01  1.30e-05    33.9
   11    -264.6125064630844008     1.19e-07  1.45e-04  5.57e-02  4.81e-06    30.6
   12    -264.6125064596515131     3.43e-09  1.77e-04  8.38e-02  2.32e-06    26.4
                 **** Energy Check signals convergence ****

               *****************************************************
               *                     SUCCESS                       *
               *           SCF CONVERGED AFTER  12 CYCLES          *
               *****************************************************

Recomputing exchange energy using gridx3       ... done (   68.973 sec)
Old exchange energy                            :    -24.910211731 Eh
New exchange energy                            :    -24.910043710 Eh
Exchange energy change after final integration :      0.000168021 Eh
Total energy after final integration           :   -264.612338439 Eh
             **** ENERGY FILE WAS UPDATED (h3_frag.en.tmp) ****

----------------
TOTAL SCF ENERGY
----------------

Total Energy       :       -264.61233843865341 Eh           -7200.46779 eV

Components:
Nuclear Repulsion  :        223.84508558054401 Eh            6091.13445 eV
Electronic Energy  :       -488.44685711731989 Eh          -13291.31470 eV
One Electron Energy:       -800.97844238774803 Eh          -21795.73149 eV
Two Electron Energy:        312.53158527042814 Eh            8504.41679 eV
CPCM Dielectric    :         -0.01073492287568 Eh              -0.29211 eV

Virial components:
Potential Energy   :       -528.33561606507305 Eh          -14376.74301 eV
Kinetic Energy     :        263.72327762641964 Eh            7176.27522 eV
Virial Ratio       :          2.00337118824032

DFT components:
N(Alpha)           :       21.999999896126 electrons
N(Beta)            :       21.999999896126 electrons
N(Total)           :       43.999999792251 electrons
E(X)               :      -11.151777119481 Eh       
E(C)               :       -0.680274209235 Eh       
E(XC)              :      -11.832051328716 Eh       

CPCM Solvation Model Properties:
Surface-charge          :         -0.01187752284468
Corrected charge        :          0.00000000000000
Outlying charge corr.   :          0.00000512956790 Eh               0.00014 eV
Free-energy (cav+disp)  :  This term is not implemented in the current solvation scheme

---------------
SCF CONVERGENCE
---------------

  Last Energy change         ...   -3.4329e-09  Tolerance :   1.0000e-08
  Last MAX-Density change    ...    8.3822e-02  Tolerance :   1.0000e-07
  Last RMS-Density change    ...    1.7725e-04  Tolerance :   5.0000e-09
  Last DIIS Error            ...    2.4840e-03  Tolerance :   5.0000e-07
  Last Orbital Gradient      ...    2.3199e-06  Tolerance :   1.0000e-05
  Last Orbital Rotation      ...    4.0418e-06  Tolerance :   1.0000e-05


----------------
ORBITAL ENERGIES
----------------

  NO   OCC          E(Eh)            E(eV) 
   0   2.0000     -15.132429      -411.7743 
   1   2.0000     -15.060003      -409.8035 
   2   2.0000     -10.877725      -295.9979 
   3   2.0000     -10.839521      -294.9584 
   4   2.0000     -10.837451      -294.9020 
   5   2.0000     -10.805953      -294.0449 
   6   2.0000      -1.220958       -33.2240 
   7   2.0000      -1.055572       -28.7236 
   8   2.0000      -0.930415       -25.3179 
   9   2.0000      -0.847379       -23.0584 
  10   2.0000      -0.742500       -20.2044 
  11   2.0000      -0.697116       -18.9695 
  12   2.0000      -0.665606       -18.1121 
  13   2.0000      -0.554140       -15.0789 
  14   2.0000      -0.549041       -14.9402 
  15   2.0000      -0.534072       -14.5328 
  16   2.0000      -0.497753       -13.5446 
  17   2.0000      -0.480378       -13.0717 
  18   2.0000      -0.472869       -12.8674 
  19   2.0000      -0.378655       -10.3037 
  20   2.0000      -0.356136        -9.6910 
  21   2.0000      -0.284856        -7.7513 
  22   0.0000       0.020473         0.5571 
  23   0.0000       0.037717         1.0263 
  24   0.0000       0.039345         1.0706 
  25   0.0000       0.044321         1.2060 
  26   0.0000       0.054406         1.4805 
  27   0.0000       0.060507         1.6465 
  28   0.0000       0.065560         1.7840 
  29   0.0000       0.068087         1.8527 
  30   0.0000       0.074238         2.0201 
  31   0.0000       0.080597         2.1932 
  32   0.0000       0.083881         2.2825 
*Only the first 10 virtual orbitals were printed.

                    ********************************
                    * MULLIKEN POPULATION ANALYSIS *
                    ********************************

-----------------------
MULLIKEN ATOMIC CHARGES
-----------------------
   0 C :   -0.008424
   1 C :   -0.003296
   2 O :   -0.006705
   3 O :    0.000916
   4 O :   -0.006348
   5 O :   -0.003802
   6 P :    0.000300
   7 H :   -0.000620
   8 H :    0.000430
   9 H :    0.001497
  10 H :   -0.002249
  11 H :    0.002212
  12 H :    0.007130
  13 C :   -0.078497
  14 C :   -0.021319
  15 H :   -0.000265
  16 H :    0.001365
  17 C :   -0.006751
  18 H :   -0.001775
  19 H :   -0.000406
  20 N :   -0.000435
  21 H :   -0.000022
  22 H :    0.000783
  23 H :    0.000033
  24 H :    0.027474
  25 H :    0.024401
  26 H :    0.068583
  27 C :   -0.436899
  28 N :   -0.683519
  29 N :   -0.294605
  30 H :    0.286208
  31 C :    0.288933
  32 C :    0.389801
  33 H :   -0.071781
  34 C :   -0.183208
  35 H :    0.450970
  36 H :    0.017099
  37 H :    0.160500
  38 H :    0.082294
Sum of atomic charges:    0.0000000

--------------------------------
MULLIKEN REDUCED ORBITAL CHARGES
--------------------------------
  0 C s       :    -0.000095  s :    -0.000095
      pz      :     0.005501  p :     0.010857
      px      :     0.000427
      py      :     0.004928
      dz2     :     0.000604  d :    -0.002337
      dxz     :    -0.000240
      dyz     :    -0.001896
      dx2y2   :     0.000256
      dxy     :    -0.001062
      f0      :    -0.000000  f :    -0.000000
      f+1     :    -0.000000
      f-1     :    -0.000000
      f+2     :     0.000000
      f-2     :    -0.000000
      f+3     :    -0.000000
      f-3     :     0.000000
      g0      :    -0.000000  g :     0.000000
      g+1     :    -0.000000
      g-1     :     0.000000
      g+2     :     0.000000
      g-2     :     0.000000
      g+3     :     0.000000
      g-3     :     0.000000
      g+4     :    -0.000000
      g-4     :    -0.000000

  1 C s       :     0.001640  s :     0.001640
      pz      :    -0.000509  p :    -0.000087
      px      :    -0.000094
      py      :     0.000516
      dz2     :     0.001010  d :     0.001746
      dxz     :    -0.000146
      dyz     :     0.000585
      dx2y2   :     0.000158
      dxy     :     0.000139
      f0      :    -0.000001  f :    -0.000002
      f+1     :    -0.000000
      f-1     :    -0.000001
      f+2     :     0.000000
      f-2     :     0.000000
      f+3     :     0.000000
      f-3     :     0.000000
      g0      :    -0.000000  g :     0.000000
      g+1     :    -0.000000
      g-1     :     0.000000
      g+2     :    -0.000000
      g-2     :    -0.000000
      g+3     :    -0.000000
      g-3     :    -0.000000
      g+4     :    -0.000000
      g-4     :    -0.000000

  2 O s       :     0.006310  s :     0.006310
      pz      :     0.000051  p :     0.000056
      px      :     0.000123
      py      :    -0.000119
      dz2     :     0.000004  d :     0.000339
      dxz     :     0.000044
      dyz     :     0.000215
      dx2y2   :     0.000013
      dxy     :     0.000062
      f0      :     0.000000  f :    -0.000000
      f+1     :    -0.000000
      f-1     :    -0.000000
      f+2     :    -0.000000
      f-2     :    -0.000000
      f+3     :    -0.000000
      f-3     :    -0.000000
      g0      :    -0.000000  g :    -0.000000
      g+1     :    -0.000000
      g-1     :    -0.000000
      g+2     :    -0.000000
      g-2     :     0.000000
      g+3     :    -0.000000
      g-3     :    -0.000000
      g+4     :    -0.000000
      g-4     :    -0.000000

  3 O s       :    -0.002011  s :    -0.002011
      pz      :     0.001033  p :     0.001137
      px      :     0.000308
      py      :    -0.000204
      dz2     :     0.000054  d :    -0.000042
      dxz     :    -0.000086
      dyz     :    -0.000014
      dx2y2   :    -0.000096
      dxy     :     0.000100
      f0      :    -0.000000  f :    -0.000000
      f+1     :    -0.000000
      f-1     :    -0.000000
      f+2     :     0.000000
      f-2     :     0.000000
      f+3     :     0.000000
      f-3     :     0.000000
      g0      :    -0.000000  g :    -0.000000
      g+1     :    -0.000000
      g-1     :    -0.000000
      g+2     :    -0.000000
      g-2     :    -0.000000
      g+3     :    -0.000000
      g-3     :    -0.000000
      g+4     :    -0.000000
      g-4     :    -0.000000

  4 O s       :    -0.000733  s :    -0.000733
      pz      :     0.001094  p :     0.004296
      px      :     0.000572
      py      :     0.002630
      dz2     :     0.000138  d :     0.002784
      dxz     :     0.000634
      dyz     :     0.000773
      dx2y2   :     0.000700
      dxy     :     0.000539
      f0      :     0.000000  f :     0.000001
      f+1     :    -0.000000
      f-1     :     0.000000
      f+2     :     0.000000
      f-2     :     0.000000
      f+3     :     0.000000
      f-3     :     0.000000
      g0      :    -0.000000  g :     0.000000
      g+1     :     0.000000
      g-1     :     0.000000
      g+2     :     0.000000
      g-2     :     0.000000
      g+3     :     0.000000
      g-3     :     0.000000
      g+4     :    -0.000000
      g-4     :     0.000000

  5 O s       :    -0.000683  s :    -0.000683
      pz      :    -0.000506  p :     0.002474
      px      :     0.000981
      py      :     0.001999
      dz2     :     0.001754  d :     0.002012
      dxz     :    -0.000125
      dyz     :     0.000511
      dx2y2   :    -0.000039
      dxy     :    -0.000088
      f0      :    -0.000000  f :    -0.000000
      f+1     :    -0.000000
      f-1     :    -0.000000
      f+2     :    -0.000000
      f-2     :     0.000000
      f+3     :     0.000000
      f-3     :     0.000000
      g0      :    -0.000000  g :    -0.000000
      g+1     :     0.000000
      g-1     :     0.000000
      g+2     :    -0.000000
      g-2     :    -0.000000
      g+3     :    -0.000000
      g-3     :     0.000000
      g+4     :    -0.000000
      g-4     :    -0.000000

  6 P s       :    -0.011101  s :    -0.011101
      pz      :     0.001337  p :     0.012733
      px      :    -0.003346
      py      :     0.014742
      dz2     :     0.006392  d :    -0.001946
      dxz     :     0.003915
      dyz     :    -0.001535
      dx2y2   :    -0.009704
      dxy     :    -0.001014
      f0      :     0.000012  f :     0.000016
      f+1     :    -0.000011
      f-1     :     0.000013
      f+2     :    -0.000006
      f-2     :     0.000005
      f+3     :     0.000001
      f-3     :     0.000002
      g0      :    -0.000000  g :    -0.000001
      g+1     :    -0.000000
      g-1     :    -0.000000
      g+2     :    -0.000000
      g-2     :     0.000000
      g+3     :    -0.000000
      g-3     :    -0.000000
      g+4     :     0.000000
      g-4     :     0.000000

  7 H s       :     0.001031  s :     0.001031
      pz      :    -0.000639  p :    -0.000411
      px      :    -0.000021
      py      :     0.000249
      dz2     :     0.000000  d :     0.000000
      dxz     :    -0.000000
      dyz     :    -0.000000
      dx2y2   :    -0.000000
      dxy     :    -0.000000
      f0      :     0.000000  f :     0.000000
      f+1     :     0.000000
      f-1     :     0.000000
      f+2     :    -0.000000
      f-2     :    -0.000000
      f+3     :    -0.000000
      f-3     :    -0.000000

  8 H s       :    -0.000262  s :    -0.000262
      pz      :    -0.000251  p :    -0.000168
      px      :     0.000036
      py      :     0.000047
      dz2     :     0.000000  d :     0.000000
      dxz     :    -0.000000
      dyz     :    -0.000000
      dx2y2   :     0.000000
      dxy     :    -0.000000
      f0      :    -0.000000  f :    -0.000000
      f+1     :    -0.000000
      f-1     :    -0.000000
      f+2     :    -0.000000
      f-2     :    -0.000000
      f+3     :    -0.000000
      f-3     :    -0.000000

  9 H s       :    -0.002404  s :    -0.002404
      pz      :     0.000633  p :     0.000907
      px      :    -0.000106
      py      :     0.000379
      dz2     :     0.000001  d :     0.000001
      dxz     :     0.000000
      dyz     :     0.000000
      dx2y2   :    -0.000000
      dxy     :     0.000000
      f0      :     0.000000  f :     0.000000
      f+1     :     0.000000
      f-1     :     0.000000
      f+2     :    -0.000000
      f-2     :    -0.000000
      f+3     :    -0.000000
      f-3     :    -0.000000

 10 H s       :     0.001578  s :     0.001578
      pz      :     0.000185  p :     0.000671
      px      :     0.000185
      py      :     0.000301
      dz2     :     0.000000  d :    -0.000000
      dxz     :     0.000000
      dyz     :    -0.000000
      dx2y2   :     0.000000
      dxy     :    -0.000000
      f0      :    -0.000000  f :    -0.000000
      f+1     :    -0.000000
      f-1     :    -0.000000
      f+2     :    -0.000000
      f-2     :    -0.000000
      f+3     :     0.000000
      f-3     :    -0.000000

 11 H s       :    -0.001337  s :    -0.001337
      pz      :    -0.000050  p :    -0.000875
      px      :    -0.000020
      py      :    -0.000805
      dz2     :     0.000000  d :    -0.000000
      dxz     :    -0.000000
      dyz     :    -0.000000
      dx2y2   :     0.000000
      dxy     :    -0.000000
      f0      :     0.000000  f :    -0.000000
      f+1     :    -0.000000
      f-1     :    -0.000000
      f+2     :    -0.000000
      f-2     :    -0.000000
      f+3     :    -0.000000
      f-3     :     0.000000

 12 H s       :    -0.007011  s :    -0.007011
      pz      :     0.000002  p :    -0.000119
      px      :    -0.001390
      py      :     0.001269
      dz2     :    -0.000000  d :    -0.000000
      dxz     :    -0.000000
      dyz     :    -0.000000
      dx2y2   :    -0.000000
      dxy     :    -0.000000
      f0      :     0.000000  f :    -0.000000
      f+1     :    -0.000000
      f-1     :     0.000000
      f+2     :     0.000000
      f-2     :    -0.000000
      f+3     :    -0.000000
      f-3     :     0.000000

 13 C s       :     0.004375  s :     0.004375
      pz      :    -0.003224  p :     0.085035
      px      :    -0.000351
      py      :     0.088610
      dz2     :    -0.007445  d :    -0.010910
      dxz     :     0.000413
      dyz     :     0.005690
      dx2y2   :    -0.010105
      dxy     :     0.000537
      f0      :     0.000000  f :    -0.000003
      f+1     :    -0.000000
      f-1     :    -0.000001
      f+2     :    -0.000001
      f-2     :    -0.000000
      f+3     :     0.000000
      f-3     :    -0.000002
      g0      :    -0.000000  g :    -0.000000
      g+1     :     0.000000
      g-1     :     0.000000
      g+2     :     0.000000
      g-2     :    -0.000000
      g+3     :    -0.000000
      g-3     :    -0.000000
      g+4     :    -0.000000
      g-4     :     0.000000

 14 C s       :     0.000332  s :     0.000332
      pz      :    -0.000627  p :     0.016847
      px      :     0.001418
      py      :     0.016055
      dz2     :     0.001550  d :     0.004141
      dxz     :     0.000081
      dyz     :     0.000651
      dx2y2   :     0.002253
      dxy     :    -0.000394
      f0      :     0.000000  f :     0.000000
      f+1     :     0.000000
      f-1     :     0.000000
      f+2     :     0.000000
      f-2     :    -0.000000
      f+3     :     0.000000
      f-3     :    -0.000000
      g0      :    -0.000000  g :    -0.000000
      g+1     :    -0.000000
      g-1     :     0.000000
      g+2     :    -0.000000
      g-2     :    -0.000000
      g+3     :    -0.000000
      g-3     :    -0.000000
      g+4     :    -0.000000
      g-4     :    -0.000000

 15 H s       :     0.000283  s :     0.000283
      pz      :     0.000023  p :    -0.000018
      px      :     0.000059
      py      :    -0.000100
      dz2     :    -0.000000  d :    -0.000000
      dxz     :    -0.000000
      dyz     :    -0.000000
      dx2y2   :     0.000000
      dxy     :    -0.000000
      f0      :    -0.000000  f :    -0.000000
      f+1     :     0.000000
      f-1     :    -0.000000
      f+2     :    -0.000000
      f-2     :    -0.000000
      f+3     :    -0.000000
      f-3     :     0.000000

 16 H s       :    -0.001249  s :    -0.001249
      pz      :    -0.000049  p :    -0.000116
      px      :     0.000007
      py      :    -0.000074
      dz2     :    -0.000000  d :    -0.000000
      dxz     :    -0.000000
      dyz     :     0.000000
      dx2y2   :     0.000000
      dxy     :    -0.000000
      f0      :     0.000000  f :    -0.000000
      f+1     :    -0.000000
      f-1     :    -0.000000
      f+2     :    -0.000000
      f-2     :    -0.000000
      f+3     :    -0.000000
      f-3     :    -0.000000

 17 C s       :    -0.001024  s :    -0.001024
      pz      :     0.001369  p :     0.009916
      px      :     0.000901
      py      :     0.007646
      dz2     :    -0.000790  d :    -0.002141
      dxz     :     0.000002
      dyz     :     0.000428
      dx2y2   :    -0.001838
      dxy     :     0.000057
      f0      :     0.000000  f :     0.000000
      f+1     :    -0.000000
      f-1     :     0.000000
      f+2     :    -0.000000
      f-2     :    -0.000000
      f+3     :     0.000000
      f-3     :     0.000000
      g0      :    -0.000000  g :    -0.000000
      g+1     :    -0.000000
      g-1     :     0.000000
      g+2     :    -0.000000
      g-2     :     0.000000
      g+3     :    -0.000000
      g-3     :    -0.000000
      g+4     :    -0.000000
      g-4     :    -0.000000

 18 H s       :     0.001387  s :     0.001387
      pz      :    -0.000010  p :     0.000388
      px      :     0.000009
      py      :     0.000390
      dz2     :    -0.000000  d :    -0.000000
      dxz     :    -0.000000
      dyz     :    -0.000000
      dx2y2   :    -0.000000
      dxy     :     0.000000
      f0      :    -0.000000  f :    -0.000000
      f+1     :    -0.000000
      f-1     :     0.000000
      f+2     :    -0.000000
      f-2     :    -0.000000
      f+3     :    -0.000000
      f-3     :     0.000000

 19 H s       :     0.000765  s :     0.000765
      pz      :     0.000019  p :    -0.000359
      px      :     0.000325
      py      :    -0.000703
      dz2     :     0.000000  d :    -0.000000
      dxz     :    -0.000000
      dyz     :    -0.000000
      dx2y2   :    -0.000000
      dxy     :    -0.000000
      f0      :     0.000000  f :    -0.000000
      f+1     :    -0.000000
      f-1     :    -0.000000
      f+2     :    -0.000000
      f-2     :    -0.000000
      f+3     :    -0.000000
      f-3     :    -0.000000

 20 N s       :     0.000610  s :     0.000610
      pz      :    -0.000041  p :    -0.000166
      px      :    -0.000004
      py      :    -0.000121
      dz2     :     0.000038  d :    -0.000009
      dxz     :     0.000002
      dyz     :    -0.000029
      dx2y2   :    -0.000023
      dxy     :     0.000003
      f0      :     0.000000  f :    -0.000000
      f+1     :    -0.000000
      f-1     :     0.000000
      f+2     :    -0.000000
      f-2     :    -0.000000
      f+3     :    -0.000000
      f-3     :    -0.000000
      g0      :    -0.000000  g :    -0.000000
      g+1     :    -0.000000
      g-1     :    -0.000000
      g+2     :    -0.000000
      g-2     :    -0.000000
      g+3     :    -0.000000
      g-3     :    -0.000000
      g+4     :     0.000000
      g-4     :     0.000000

 21 H s       :     0.000003  s :     0.000003
      pz      :     0.000008  p :     0.000019
      px      :     0.000002
      py      :     0.000009
      dz2     :     0.000000  d :    -0.000000
      dxz     :    -0.000000
      dyz     :    -0.000000
      dx2y2   :    -0.000000
      dxy     :    -0.000000
      f0      :    -0.000000  f :    -0.000000
      f+1     :    -0.000000
      f-1     :    -0.000000
      f+2     :    -0.000000
      f-2     :    -0.000000
      f+3     :    -0.000000
      f-3     :    -0.000000

 22 H s       :    -0.000614  s :    -0.000614
      pz      :    -0.000004  p :    -0.000169
      px      :    -0.000049
      py      :    -0.000115
      dz2     :    -0.000000  d :    -0.000000
      dxz     :     0.000000
      dyz     :     0.000000
      dx2y2   :     0.000000
      dxy     :    -0.000000
      f0      :    -0.000000  f :    -0.000000
      f+1     :     0.000000
      f-1     :    -0.000000
      f+2     :    -0.000000
      f-2     :     0.000000
      f+3     :     0.000000
      f-3     :    -0.000000

 23 H s       :    -0.000796  s :    -0.000796
      pz      :     0.000495  p :     0.000762
      px      :     0.000204
      py      :     0.000063
      dz2     :    -0.000000  d :    -0.000000
      dxz     :    -0.000000
      dyz     :    -0.000000
      dx2y2   :    -0.000000
      dxy     :    -0.000000
      f0      :    -0.000000  f :    -0.000000
      f+1     :    -0.000000
      f-1     :    -0.000000
      f+2     :     0.000000
      f-2     :    -0.000000
      f+3     :     0.000000
      f-3     :     0.000000

 24 H s       :    -0.016062  s :    -0.016062
      pz      :     0.000694  p :    -0.011414
      px      :    -0.002301
      py      :    -0.009807
      dz2     :    -0.000002  d :     0.000002
      dxz     :    -0.000000
      dyz     :     0.000000
      dx2y2   :     0.000002
      dxy     :     0.000002
      f0      :    -0.000000  f :    -0.000000
      f+1     :    -0.000000
      f-1     :    -0.000000
      f+2     :     0.000000
      f-2     :     0.000000
      f+3     :     0.000000
      f-3     :    -0.000000

 25 H s       :    -0.021147  s :    -0.021147
      pz      :    -0.003585  p :    -0.003255
      px      :    -0.000052
      py      :     0.000383
      dz2     :     0.000000  d :     0.000000
      dxz     :     0.000000
      dyz     :     0.000000
      dx2y2   :    -0.000000
      dxy     :    -0.000000
      f0      :     0.000000  f :     0.000000
      f+1     :    -0.000000
      f-1     :    -0.000000
      f+2     :     0.000000
      f-2     :    -0.000000
      f+3     :     0.000000
      f-3     :    -0.000000

 26 H s       :    -0.062165  s :    -0.062165
      pz      :    -0.001214  p :    -0.006415
      px      :    -0.002495
      py      :    -0.002705
      dz2     :    -0.000000  d :    -0.000003
      dxz     :     0.000000
      dyz     :    -0.000000
      dx2y2   :    -0.000002
      dxy     :    -0.000000
      f0      :    -0.000000  f :     0.000000
      f+1     :    -0.000000
      f-1     :    -0.000000
      f+2     :     0.000000
      f-2     :    -0.000000
      f+3     :    -0.000000
      f-3     :     0.000000

 27 C s       :     3.197546  s :     3.197546
      pz      :     1.054387  p :     3.125020
      px      :     1.055145
      py      :     1.015488
      dz2     :     0.013863  d :     0.106790
      dxz     :     0.016107
      dyz     :     0.031019
      dx2y2   :     0.024181
      dxy     :     0.021620
      f0      :     0.000723  f :     0.006937
      f+1     :     0.000820
      f-1     :     0.000750
      f+2     :     0.001544
      f-2     :     0.000851
      f+3     :     0.001134
      f-3     :     0.001114
      g0      :     0.000042  g :     0.000606
      g+1     :     0.000086
      g-1     :     0.000025
      g+2     :     0.000079
      g-2     :     0.000048
      g+3     :     0.000088
      g-3     :     0.000055
      g+4     :     0.000078
      g-4     :     0.000106

 28 N s       :     3.896445  s :     3.896445
      pz      :     1.292784  p :     3.709441
      px      :     1.152644
      py      :     1.264013
      dz2     :     0.006602  d :     0.068771
      dxz     :     0.016780
      dyz     :     0.007981
      dx2y2   :     0.023576
      dxy     :     0.013833
      f0      :     0.001219  f :     0.008337
      f+1     :     0.000687
      f-1     :     0.001156
      f+2     :     0.001691
      f-2     :     0.000838
      f+3     :     0.000985
      f-3     :     0.001761
      g0      :     0.000038  g :     0.000525
      g+1     :     0.000055
      g-1     :     0.000053
      g+2     :     0.000067
      g-2     :     0.000044
      g+3     :     0.000076
      g-3     :     0.000031
      g+4     :     0.000072
      g-4     :     0.000087

 29 N s       :     3.542304  s :     3.542304
      pz      :     1.278016  p :     3.652042
      px      :     1.090986
      py      :     1.283040
      dz2     :     0.023294  d :     0.089137
      dxz     :     0.019085
      dyz     :     0.009812
      dx2y2   :     0.019304
      dxy     :     0.017642
      f0      :     0.000977  f :     0.010582
      f+1     :     0.001659
      f-1     :     0.001382
      f+2     :     0.001786
      f-2     :     0.001552
      f+3     :     0.001862
      f-3     :     0.001364
      g0      :     0.000039  g :     0.000540
      g+1     :     0.000042
      g-1     :     0.000060
      g+2     :     0.000042
      g-2     :     0.000079
      g+3     :     0.000085
      g-3     :     0.000091
      g+4     :     0.000053
      g-4     :     0.000049

 30 H s       :     0.652470  s :     0.652470
      pz      :     0.021535  p :     0.053340
      px      :     0.012472
      py      :     0.019333
      dz2     :     0.000581  d :     0.007291
      dxz     :     0.002734
      dyz     :     0.000199
      dx2y2   :     0.001062
      dxy     :     0.002714
      f0      :     0.000075  f :     0.000692
      f+1     :     0.000100
      f-1     :     0.000016
      f+2     :     0.000141
      f-2     :     0.000040
      f+3     :     0.000119
      f-3     :     0.000202

 31 C s       :     3.118329  s :     3.118329
      pz      :     0.895997  p :     2.412010
      px      :     0.638820
      py      :     0.877192
      dz2     :     0.033114  d :     0.154126
      dxz     :     0.020859
      dyz     :    -0.009558
      dx2y2   :     0.083949
      dxy     :     0.025762
      f0      :     0.002327  f :     0.024718
      f+1     :     0.003726
      f-1     :     0.002552
      f+2     :     0.004091
      f-2     :     0.003659
      f+3     :     0.004377
      f-3     :     0.003987
      g0      :     0.000140  g :     0.001885
      g+1     :     0.000143
      g-1     :     0.000197
      g+2     :     0.000214
      g-2     :     0.000230
      g+3     :     0.000284
      g-3     :     0.000274
      g+4     :     0.000229
      g-4     :     0.000173

 32 C s       :     2.971176  s :     2.971176
      pz      :     0.777495  p :     2.500110
      px      :     0.807235
      py      :     0.915380
      dz2     :     0.027517  d :     0.110863
      dxz     :     0.037971
      dyz     :     0.022883
      dx2y2   :    -0.011457
      dxy     :     0.033949
      f0      :     0.003776  f :     0.025687
      f+1     :     0.002016
      f-1     :     0.003069
      f+2     :     0.005668
      f-2     :     0.002218
      f+3     :     0.002455
      f-3     :     0.006485
      g0      :     0.000118  g :     0.002363
      g+1     :     0.000278
[...]
      f0      :     0.002010  f :     0.009029
      f+1     :     0.001702
      f-1     :     0.001528
      f+2     :     0.001778
      f-2     :     0.001385
      f+3     :     0.000265
      f-3     :     0.000362



                      *****************************
                      * MAYER POPULATION ANALYSIS *
                      *****************************

  NA   - Mulliken gross atomic population
  ZA   - Total nuclear charge
  QA   - Mulliken gross atomic charge
  VA   - Mayer's total valence
  BVA  - Mayer's bonded valence
  FA   - Mayer's free valence

  ATOM       NA         ZA         QA         VA         BVA        FA
  0 C      0.0084     0.0000    -0.0084     0.0168     0.0168     0.0000
  1 C      0.0033     0.0000    -0.0033     0.0066     0.0066    -0.0000
  2 O      0.0067     0.0000    -0.0067     0.0134     0.0134     0.0000
  3 O     -0.0009     0.0000     0.0009    -0.0018    -0.0018     0.0000
  4 O      0.0063     0.0000    -0.0063     0.0127     0.0127     0.0000
  5 O      0.0038     0.0000    -0.0038     0.0076     0.0076     0.0000
  6 P     -0.0003     0.0000     0.0003    -0.0006    -0.0006    -0.0000
  7 H      0.0006     0.0000    -0.0006     0.0012     0.0012     0.0000
  8 H     -0.0004     0.0000     0.0004    -0.0009    -0.0009    -0.0000
  9 H     -0.0015     0.0000     0.0015    -0.0030    -0.0030    -0.0000
 10 H      0.0022     0.0000    -0.0022     0.0045     0.0045    -0.0000
 11 H     -0.0022     0.0000     0.0022    -0.0044    -0.0044    -0.0000
 12 H     -0.0071     0.0000     0.0071    -0.0143    -0.0143     0.0000
 13 C      0.0785     0.0000    -0.0785     0.1501     0.1501     0.0000
 14 C      0.0213     0.0000    -0.0213     0.0422     0.0422     0.0000
 15 H      0.0003     0.0000    -0.0003     0.0005     0.0005     0.0000
 16 H     -0.0014     0.0000     0.0014    -0.0027    -0.0027     0.0000
 17 C      0.0068     0.0000    -0.0068     0.0135     0.0135    -0.0000
 18 H      0.0018     0.0000    -0.0018     0.0035     0.0035    -0.0000
 19 H      0.0004     0.0000    -0.0004     0.0008     0.0008    -0.0000
 20 N      0.0004     0.0000    -0.0004     0.0009     0.0009    -0.0000
 21 H      0.0000     0.0000    -0.0000     0.0000     0.0000     0.0000
 22 H     -0.0008     0.0000     0.0008    -0.0016    -0.0016     0.0000
 23 H     -0.0000     0.0000     0.0000    -0.0001    -0.0001    -0.0000
 24 H     -0.0275     0.0000     0.0275    -0.0557    -0.0557     0.0000
 25 H     -0.0244     0.0000     0.0244    -0.0494    -0.0494    -0.0000
 26 H     -0.0686     0.0000     0.0686    -0.1417    -0.1417    -0.0000
 27 C      6.4369     6.0000    -0.4369     3.8958     3.8958    -0.0000
 28 N      7.6835     7.0000    -0.6835     2.6549     2.6549     0.0000
 29 N      7.2946     7.0000    -0.2946     3.3823     3.3823    -0.0000
 30 H      0.7138     1.0000     0.2862     0.9398     0.9398    -0.0000
 31 C      5.7111     6.0000     0.2889     3.6565     3.6565     0.0000
 32 C      5.6102     6.0000     0.3898     3.4985     3.4985     0.0000
 33 H      1.0718     1.0000    -0.0718     1.3499     1.3499     0.0000
 34 C      6.1832     6.0000    -0.1832     3.7126     3.7126     0.0000
 35 H      0.5490     1.0000     0.4510     0.7033     0.7033     0.0000
 36 H      0.9829     1.0000     0.0171     1.2574     1.2574    -0.0000
 37 H      0.8395     1.0000     0.1605     0.9826     0.9826    -0.0000
 38 H      0.9177     1.0000     0.0823     1.2121     1.2121    -0.0000

  Mayer bond orders larger than 0.100000
B( 13-C , 36-H ) :   0.1079 B( 26-H , 36-H ) :  -0.1455 B( 27-C , 31-C ) :   0.8332 
B( 27-C , 34-C ) :   0.1012 B( 27-C , 36-H ) :   1.0994 B( 27-C , 37-H ) :   0.9010 
B( 27-C , 38-H ) :   1.0313 B( 28-N , 31-C ) :   1.2566 B( 28-N , 32-C ) :   1.3037 
B( 28-N , 33-H ) :   0.1405 B( 29-N , 30-H ) :   0.8778 B( 29-N , 31-C ) :  -0.1156 
B( 29-N , 32-C ) :   1.2440 B( 29-N , 33-H ) :   0.1179 B( 29-N , 34-C ) :   1.1766 
B( 31-C , 32-C ) :  -0.1700 B( 31-C , 34-C ) :   1.6565 B( 31-C , 36-H ) :   0.1095 
B( 32-C , 33-H ) :   1.1248 B( 33-H , 34-C ) :  -0.1258 B( 34-C , 35-H ) :   0.7045 
B( 34-C , 36-H ) :   0.1588 

-------
TIMINGS
-------

Total SCF time: 0 days 0 hours 7 min 24 sec 

Total time                  ....     444.500 sec
Sum of individual times     ....     445.299 sec  (100.2%)

SCF preparation             ....       1.547 sec  (  0.3%)
Fock matrix formation       ....     421.506 sec  ( 94.8%)
  Startup                   ....       0.700 sec  (  0.2% of F)
  Split-RI-J                ....      19.641 sec  (  4.7% of F)
  Chain of spheres X        ....     327.659 sec  ( 77.7% of F)
  XC integration            ....      44.576 sec  ( 10.6% of F)
    XC Preparation          ....       0.000 sec  (  0.0% of XC)
    Basis function eval.    ....       4.724 sec  ( 10.6% of XC)
    Density eval.           ....      16.520 sec  ( 37.1% of XC)
    XC-Functional eval.     ....       0.099 sec  (  0.2% of XC)
    XC-Potential eval.      ....      18.370 sec  ( 41.2% of XC)
  CPCM terms                ....      27.269 sec  (  6.5% of F)
Diagonalization             ....       0.000 sec  (  0.0%)
Density matrix formation    ....       1.767 sec  (  0.4%)
Total Energy calculation    ....       0.980 sec  (  0.2%)
Population analysis         ....       0.810 sec  (  0.2%)
Orbital Transformation      ....       2.789 sec  (  0.6%)
Orbital Orthonormalization  ....       0.000 sec  (  0.0%)
DIIS solution               ....      10.170 sec  (  2.3%)
SOSCF solution              ....       5.581 sec  (  1.3%)
Finished LeanSCF after 445.0 sec

Maximum memory used throughout the entire LEANSCF-calculation: 405.9 MB


           ************************************************************
           *        Program running with 10 parallel MPI-processes    *
           *              working on a common directory               *
           ************************************************************

------------------------------------------------------------------------------
                                ORCA  MP2 
------------------------------------------------------------------------------

Freezing NCore=12 chemical core electrons

-------------
RI-MP2 ENERGY
-------------
Dimension of the orbital basis            ... 1822
Dimension of the AuxC basis               ... 4125
Memory devoted to MP2                     ... 2000 MB   
Data format for matrix containers         ... DOUBLE
Compression type for matrix containers    ... UNCOMPRESSED
Scaling for aa/bb pairs                   ...   5.660e-02
Scaling for ab pairs                      ...   5.935e-01
Overall scaling of the MP2 energy         ...   1.000e+00

-----------------------
SHARK RI TRANSFORMATION
-----------------------

Number of basis functions                ...   1822
Number of aux functions                  ...   4125
Number of operators                      ...      1
Generation of IJK                        ... NO
Generation of IAK                        ... YES
Generation of ABK                        ... NO
Orbital Range Operator  0:    6-  21 to   22-1821

Aux basis identifier                     ...   AUXC
Contraction scheme used                  ... SEGMENTED
Do orthogonalization                     ... YES
All operator combinations                ... NO
Transpose (ia|K)                         ... NO
Integral generator used                  ... LIBINT
Starting integral generation + trafo... 
Half trafo (segmented) done. Total time = 33.1 sec. integrals= 10.0 sec trafo= 13.2 sec
Integral generation and half transformation done ( 33.1 sec)

Reading or making V^(-1/2)          ... done (  0.2 sec)
Sorting IAK integrals               ... done (  6.2 sec)

SHARK RI integral transformation done. Total time = 39.5 sec.

Opening buffers                              ... done

Starting loop over batches of integrals:

Operator 0  - window                       ... (  6- 21)x( 22-1821)
Operator 0  - Memory available             ...  2000 MB
Operator 0  - Memory needed per MO         ...  56.6 MB
Operator 0  - Number of orbitals per batch ... 2
Operator 0  - Number of batches            ... 1

OPERATOR  0   PASS   0:  MOs     6 ...    7 +    8 ...    9 +   10 ...   11 +   12 ...   13
                            +   14 ...   15 +   16 ...   17 +   18 ...   19 +   20 ...   21
  Reading integrals       ... ok
Time spent in pair loops =    38.485 sec
Deleting buffers (Ka|jb) ...done

-----------------------------------------------
 RI-MP2 CORRELATION ENERGY:     -0.581749580 Eh
-----------------------------------------------


-------
TIMINGS
-------

Total time                :   85.592 sec
Integral trafo            :   39.524 sec ( 46.2%)
I/O of integrals          :    0.058 sec (  0.1%)
K(i,j) operators          :    1.247 sec (  1.5%)
T(i,j) pair energies      :    0.096 sec (  0.1%)
V**(-1/2)                 :    7.583 sec (  8.9%)


---------------------------------------
MP2 TOTAL ENERGY:     -265.194088019 Eh
---------------------------------------

Maximum memory used throughout the entire MP2-calculation: 530.8 MB


-------------------------------------------------------------------------------
                          DFT DISPERSION CORRECTION                            
                                                                               
                                DFTD4 V3.4.0                                   
-------------------------------------------------------------------------------
The REV-DSD-PBEP86-2021 functional is recognized
A user input s6-coefficient scaling factor has been recognized
A user input a1-coefficient scaling factor has been recognized
A user input s8-coefficient scaling factor has been recognized
A user input a2-coefficient scaling factor has been recognized
A user input s9-coefficient scaling factor has been recognized
Active option DFTDOPT                   ...         5   

-------------------------   ----------------
Dispersion correction           -0.006533625
-------------------------   ----------------


-------------------------   --------------------
FINAL SINGLE POINT ENERGY      -265.200621643688
-------------------------   --------------------



           ************************************************************
           *        Program running with 10 parallel MPI-processes    *
           *              working on a common directory               *
           ************************************************************

------------------------------------------------------------------------------
                              ORCA PROPERTY CALCULATIONS
------------------------------------------------------------------------------

GBWName                                 ... h3_frag.gbw
Number of atoms                         ...     39
Number of basis functions               ...   1822
Max core memory                         ...   2000 MB

Electric properties:
Dipole moment                           ... YES
Quadrupole moment                       ...  NO
Static polarizability (Dipole/Dipole)   ...  NO
Static polarizability (Dipole/Quad.)    ...  NO
Static polarizability (Quad./Quad.)     ...  NO
Static polarizability (Velocity)        ...  NO

Atomic electric properties:
Dipole moment                           ...  NO
Quadrupole moment                       ...  NO
Static polarizability                   ...  NO

Choice of electric origin               ... Center of mass
Position of electric origin             ...    -3.023452    -0.020746     3.225646

General magnetic properties:
Magnetizability                         ...  NO

EPR properties:
g-Tensor (aka g-matrix)                 ...  NO
Zero-Field splitting spin-orbit         ...  NO
Zero-field splitting spin-spin          ...  NO
Hyperfine couplings                     ...  NO (   0 nuclei)
Quadrupole couplings                    ...  NO (   0 nuclei)
Contact density                         ...  NO (   0 nuclei)

NMR properties:
Chemical shifts                         ...  NO (   0 nuclei)
Spin-rotation constants                 ...  NO (   0 nuclei)
Spin-spin couplings                     ...  NO (   0 nuclei,    0 pairs)

Choice of magnetic origin               ... GIAO
Position of magnetic origin             ...     0.000000     0.000000     0.000000

Properties with geometric perturbations:
SCF Hessian                             ...  NO
IR spectrum                             ...  NO
VCD spectrum                            ...  NO
X-ray spectroscopy properties:
SCF XES/XAS/RIXS spectra                ...  NO


-------------
DIPOLE MOMENT
-------------

Method             : SCF
Type of density    : Electron Density
Multiplicity       :   1
Irrep              :   0
Energy             :  -264.6123384386534099 Eh
Relativity type    : 
Basis              : AO
                                X                 Y                 Z
Electronic contribution:     -3.830000202       1.110521548      -1.245656557
Nuclear contribution   :      2.431044682      -1.774382918       2.002561698
                        -----------------------------------------
Total Dipole Moment    :     -1.398955520      -0.663861370       0.756905141
                        -----------------------------------------
Magnitude (a.u.)       :      1.723570091
Magnitude (Debye)      :      4.380967010



--------------------
Rotational spectrum 
--------------------
 
Rotational constants in cm-1:             0.302178             0.115420             0.084892 
Rotational constants in MHz :          9059.065858          3460.208640          2545.005847 

Dipole components along the rotational axes: 
x,y,z [a.u.] :    -1.042161    -1.371237     0.065610 
x,y,z [Debye]:    -2.648963    -3.485406     0.166766 

 

Dipole moment calculation done in   0.2 sec 

Maximum memory used throughout the entire PROP-calculation: 267.7 MB

--------------------------------
SUGGESTED CITATIONS FOR THIS RUN
--------------------------------

Below you find a list of papers that are relevant to this ORCA run
We neither can nor want to force you to cite these papers, but we appreciate if you do
You receive ORCA, which is the product of decades of hard work by many enthusiastic individuals, for free
The only thing we kindly ask in return is that you cite our papers,
We deeply appreciate it, if you show your appreciation for ORCA by not just citing the generic ORCA reference.

Please note that relegating all ORCA citations to the supporting information does *not* help us.
SI sections are not indexed - citations you put there will not count into any citation statistics
But we need these citations in order to attract the funding resources that allow us to do what we are doing

Therefore, if you are a happy ORCA user, please consider citing a few of the papers listed below in the main body of your paper

In addition to the list printed below, the program has created the file h3_frag.bibtex that contains the list in bibtex format
You can import this file easily into all common literature databanks and citation aid programs


List of essential papers. We consider these as the minimum necessary citations

  1. Neese,F.
     Software update: the ORCA program system, version 5.0
     WIRES Comput. Molec. Sci., 2022 12(1)e1606
     doi.org/10.1002/wcms.1606

List of papers to cite with high priority. The work reported in these papers was absolutely
necessary for this run to complete.
Our perspective: the developers of density functionals and basis sets usually get cited in chemistry papers
Good! But without the algorithms to do something with them, the functionals or basis sets would not do anything.
Hence, in our opinion, the algorithm design and method developments papers are equally worthy of getting cited

  1. Neese,F.
     An improvement of the resolution of the identity approximation for the formation of the Coulomb matrix
     J. Comp. Chem., 2003 24(14)1740-1747
     doi.org/10.1002/jcc.10318
  2. Neese,F.; Wennmohs,F.; Hansen,A.; Becker,U.
     Efficient, approximate and parallel Hartree-Fock and hybrid DFT calculations. A 'chain-of-spheres' algorithm for the Hartree-Fock exchange
     Chem. Phys., 2009 356(1-3)98-109
     doi.org/10.1016/j.chemphys.2008.10.036
  3. Kossmann,S.; Neese,F.
     Efficient Structure Optimization with Second-Order Many-Body Perturbation Theory: The RIJCOSX-MP2 Method
     J. Theo. Comp. Chem., 2010 6 2325-2338
     doi.org/10.1021/ct100199k
  4. Garcia-Rates,M.; Neese,F.
     Effect of the Solute Cavity on the Solvation Energy and its Derivatives within the Framework of the Gaussian Charge Scheme
     J. Comput. Chem., 2020 41 922-939
     doi.org/10.1002/jcc.26139
  5. Helmich-Paris,B.; de Souza,B.; Neese,F.; Izsák,R.
     An improved chain of spheres for exchange algorithm
     J. Chem. Phys., 2021 155 104109
     doi.org/doi: 10.1063/5.0058766.
  6. Neese,F.
     The SHARK Integral Generation and Digestion System
     J. Comp. Chem., 2022  1-16
     doi.org/10.1002/jcc.26942
  7. Caldeweyher,E.; Bannwarth,C.; Grimme,S.
     Extension of the D3 dispersion coefficient model
     J. Chem. Phys., 2017 147 034112
     doi.org/10.1063/1.4993215
  8. Caldeweyher,E.; Ehlert,S.; Hansen,A.; Neugebauer,H.; Spicher,S.; Bannwarth,C.; Grimme,S.
     A generally applicable atomic-charge dependent London dispersion correction
     J. Chem. Phys., 2019 150 154122
     doi.org/10.1063/1.5090222
  9. Caldeweyher,E.; Mewes,J.; Ehlert,S.; Grimme,S.
     Extension and evaluation of the D4 London-dispersion model for periodic systems
     Phys. Chem. Chem. Phys., 2020 22(16)8499-8512
     doi.org/10.1039/D0CP00502A
 10. Wittmann,L.; Gordiy,I.; Friede,M.; Helmich-Paris,B.; Grimme,S.; Hansen,A.; Bursch,M.
     Extension of the D3 and D4 London Dispersion Corrections to the full Actinides Series
     Phys. Chem. Chem. Phys., 2024 26(32)21379-21394
     doi.org/https://doi.org/10.1039/D4CP01514B 

List of suggested additional citations. These are papers that are important in the 'surrounding' of 
of this run, or papers that preceded the highly important papers. If you like your results we are grateful for a citation.

  1. Izsak,R.; Neese,F.
     An overlap fitted chain of spheres exchange method
     J. Chem. Phys., 2011 135 144105
     doi.org/10.1063/1.3646921
  2. Izsak,R.; Hansen,A.; Neese,F.
     The resolution of identity and chain of spheres approximations for the LPNO-CCSD singles Fock term
     Molec. Phys., 2012 110 2413-2417
     doi.org/10.1080/00268976.2012.687466
  3. Neese,F.
     The ORCA program system
     WIRES Comput. Molec. Sci., 2012 2(1)73-78
     doi.org/10.1002/wcms.81
  4. Izsak,R.; Neese,F.; Klopper,W.
     Robust fitting techniques in the chain of spheres approximation to the Fock exchange: The role of the complementary space
     J. Chem. Phys., 2013 139 
     doi.org/10.1063/1.4819264
  5. Neese,F.
     Software update: the ORCA program system, version 4.0
     WIRES Comput. Molec. Sci., 2018 8(1)1-6
     doi.org/10.1002/wcms.1327
  6. Neese,F.; Wennmohs,F.; Becker,U.; Riplinger,C.
     The ORCA quantum chemistry program package
     J. Chem. Phys., 2020 152 Art. No. L224108
     doi.org/10.1063/5.0004608

List of optional additional citations

  1. Neese,F.
     Approximate second-order SCF convergence for spin unrestricted wavefunctions
     Chem. Phys. Lett., 2000 325(1-3)93-98
     doi.org/10.1016/s0009-2614(00)00662-x

Timings for individual modules:

Sum of individual times          ...      550.466 sec (=   9.174 min)
Startup calculation              ...       11.347 sec (=   0.189 min)   2.1 %
SCF iterations                   ...      450.494 sec (=   7.508 min)  81.8 %
Property calculations            ...        1.593 sec (=   0.027 min)   0.3 %
MP2 module                       ...       87.031 sec (=   1.451 min)  15.8 %
                             ****ORCA TERMINATED NORMALLY****
TOTAL RUN TIME: 0 days 0 hours 9 minutes 11 seconds 259 msec
