
                                 *****************
                                 * O   R   C   A *
                                 *****************

                                            #,                                       
                                            ###                                      
                                            ####                                     
                                            #####                                    
                                            ######                                   
                                           ########,                                 
                                     ,,################,,,,,                         
                               ,,#################################,,                 
                          ,,##########################################,,             
                       ,#########################################, ''#####,          
                    ,#############################################,,   '####,        
                  ,##################################################,,,,####,       
                ,###########''''           ''''###############################       
              ,#####''   ,,,,##########,,,,          '''####'''          '####       
            ,##' ,,,,###########################,,,                        '##       
           ' ,,###''''                  '''############,,,                           
         ,,##''                                '''############,,,,        ,,,,,,###''
      ,#''                                            '''#######################'''  
     '                                                          ''''####''''         
             ,#######,   #######,   ,#######,      ##                                
            ,#'     '#,  ##    ##  ,#'     '#,    #''#        ,####,   ,####,        
            ##       ##  ##   ,#'  ##            #'  '#       #'       #'  '#        
            ##       ##  #######   ##           ,######,      #####,   #    #        
            '#,     ,#'  ##    ##  '#,     ,#' ,#      #,     #,   #   #,  ,#        
             '#######'   ##     ##  '#######'  #'      '#     '####' # '####'        



                #########################################################
                #                        -***-                          #
                #          Department of theory and spectroscopy        #
                #                                                       #
                #                      Frank Neese                      #
                #                                                       #
                #     Directorship, Architecture, Infrastructure        #
                #                    SHARK, DRIVERS                     #
                #        Core code/Algorithms in most modules           #
                #                                                       #
                #        Max Planck Institute fuer Kohlenforschung      #
                #                Kaiser Wilhelm Platz 1                 #
                #                 D-45470 Muelheim/Ruhr                 #
                #                      Germany                          #
                #                                                       #
                #                  All rights reserved                  #
                #                        -***-                          #
                #########################################################


                         Program Version 6.0.1  -  RELEASE   -


 With contributions from (in alphabetic order):
[Max-Planck-Institut fuer Kohlenforschung]                               
  Daniel Aravena         : Magnetic Suceptibility                        
  Michael Atanasov       : Ab Initio Ligand Field Theory (pilot matlab implementation)
  Alexander A. Auer      : GIAO ZORA, VPT2 properties, NMR spectrum      
  Ute Becker             : All parallelization in ORCA, NUMFREQ, NUMCALC 
  Giovanni Bistoni       : ED, misc. LED, open-shell LED, HFLD           
  Martin Brehm           : Molecular dynamics                            
  Dmytro Bykov           : pre 5.0 version of the SCF Hessian            
  Marcos Casanova-Páez   : Triplet and SCS-CIS(D). UHF-(DLPNO)-IP/EA/STEOM-CCSD. UHF-CVS-IP/STEOM-CCSD   
  Vijay G. Chilkuri      : MRCI spin determinant printing, contributions to CSF-ICE 
  Pauline Colinet        : FMM embedding                                 
  Dipayan Datta          : RHF DLPNO-CCSD density                        
  Achintya Kumar Dutta   : EOM-CC, STEOM-CC                              
  Nicolas Foglia         : Exact transition moments, OPA infrastructure, MCD improvements    
  Dmitry Ganyushin       : Spin-Orbit,Spin-Spin,Magnetic field MRCI      
  Miquel Garcia-Rates    : C-PCM and meta-GGA Hessian, CCSD/C-PCM, Gaussian charge scheme 
  Tiago L. C. Gouveia    : GS-ROHF, GS-ROCIS                             
  Yang Guo               : DLPNO-NEVPT2, F12-NEVPT2, CIM, IAO-localization        
  Andreas Hansen         : Spin unrestricted coupled pair/coupled cluster methods 
  Ingolf Harden          : AUTO-CI MPn and infrastructure                
  Benjamin Helmich-Paris : MC-RPA, TRAH-(SCF,CASSCF), AVAS, COSX integrals, SCF dyn. polar. 
  Lee Huntington         : MR-EOM, pCC                                   
  Robert Izsak           : Overlap fitted RIJCOSX, COSX-SCS-MP3, EOM     
  Riya Kayal             : Wick's Theorem for AUTO-CI, AUTO-CI UHF-CCSDT 
  Emily Kempfer          : AUTO-CI, RHF CISDT and CCSDT                  
  Christian Kollmar      : KDIIS, OOCD, Brueckner-CCSD(T), CCSD density, CASPT2, CASPT2-K, improved NEVPT2 
  Axel Koslowski         : Symmetry handling                             
  Simone Kossmann        : meta-GGA functionals, TD-DFT gradient, OOMP2, (MP2 Hessian; deprecated post 5.0) 
  Lucas Lang             : DCDCAS                                        
  Marvin Lechner         : AUTO-CI (C++ implementation), FIC-MRCC        
  Spencer Leger          : CASSCF response                               
  Dagmar Lenk            : GEPOL surface, SMD, ORCA-2-JSON               
  Dimitrios Liakos       : Extrapolation schemes; Compound Job, initial MDCI parallelization 
  Dimitrios Manganas     : Further ROCIS development; embedding schemes. LFT, Crystal Embedding 
  Dimitrios Pantazis     : SARC Basis sets                               
  Anastasios Papadopoulos: AUTO-CI, single reference methods and gradients 
  Taras Petrenko         : pre 6.0 DFT Hessian and TD-DFT gradient, (ASA, deprecated), ECA, 1-Electron XAS/XES, NRVS 
  Peter Pinski           : DLPNO-MP2, DLPNO-MP2 Gradient                 
  Christoph Reimann      : Effective Core Potentials                     
  Marius Retegan         : Local ZFS, SOC                                
  Christoph Riplinger    : Optimizer, TS searches, QM/MM, DLPNO-CCSD(T), (RO)-DLPNO pert. Triples 
  Michael Roemelt        : Original ROCIS implementation                 
  Masaaki Saitow         : Open-shell DLPNO-CCSD energy and density      
  Barbara Sandhoefer     : DKH picture change effects                    
  Kantharuban Sivalingam : CASSCF convergence/infrastructure, NEVPT2 and variants, FIC-MRCI 
  Bernardo de Souza      : ESD, SOC TD-DFT                               
  Georgi L. Stoychev     : AutoAux, RI-MP2 NMR, DLPNO-MP2 response, X2C  
  Van Anh Tran           : RI-MP2 g-tensors                              
  Willem Van den Heuvel  : Paramagnetic NMR                              
  Zikuan Wang            : NOTCH, Electric field optimization            
  Frank Wennmohs         : Technical directorship and infrastructure     
  Hang Xu                : AUTO-CI-Response properties                   
                                                                         
[FACCTs GmbH]                                                            
  Markus Bursch, Miquel Garcia-Rates, Christoph Riplinger, Bernardo de Souza, Georgi L. Stoychev 
                                                                 
  APM, Basis sets (HGBS, AHGBS, def-TZVP (Ac-Lr), def2-XVPD (La-Lu)), CI-OPT, improved COSX, DLPNO-Multilevel,           
  DOCKER, DRACO, updates on ESD, GOAT, IRC, LR-CPCM, MBIS, meta-GGA TD-DFT gradient, ML-optimized integration grids, 
  MM, NACMEs, nearIR, NEB, NEB-TS, NL-DFT gradient (VV10), 2- and 3-layer-ONIOM, interface openCOSMO-RS, QMMM,   
  Crystal-QMMM, SF, symmetry and pop. for TD-DFT, r2SCAN hybrids, SOLVATOR                                   
                                                                         
[Other institutions]                                                     
  V. Asgeirsson          : NEB                                           
  Christoph Bannwarth    : sTDA-DFT, sTD-DFT, PBEh-3c, B97-3c, D3        
  Sebastian Ehlert       : rSCAN, r2SCAN, r2SCAN-3c, D4, dhf basis sets  
  Marvin Friede          : D4 for Fr, Ra, Ac-Lr                          
  Lars Goerigk           : TD-DFT with DH, B97 family of functionals     
  Stefan Grimme          : VdW corrections, initial TS optimization, DFT functionals, gCP, sTDA/sTD-DF 
  Waldemar Hujo          : DFT-NL                                        
  H. Jonsson             : NEB                                           
  Holger Kruse           : gCP                                           
  Marcel Mueller         : wB97X-3c, vDZP basis set                      
  Hagen Neugebauer       : wr2SCAN                                       
  Tobias Risthaus        : range-separated hybrid DFT                    
  Lukas Wittmann         : regularized MP2, r2SCAN double-hybrids, wr2SCAN        
                                                                         
We gratefully acknowledge several colleagues who have allowed us to      
interface, adapt or use parts of their codes:                            
  Ed Valeev, F. Pavosevic, A. Kumar             : LibInt (2-el integral package), F12 methods 
  Garnet Chan, S. Sharma, J. Yang, R. Olivares  : DMRG                   
  Ulf Ekstrom                                   : XCFun DFT Library      
  Mihaly Kallay                                 : mrcc  (arbitrary order and MRCC methods)
  Frank Weinhold                                : gennbo (NPA and NBO analysis)           
  Simon Mueller                                 : openCOSMO-RS                            
  Christopher J. Cramer and Donald G. Truhlar   : smd solvation model                     
  S Lehtola, MJT Oliveira, MAL Marques          : LibXC Library                           
  Liviu Ungur et al                             : ANISO software                          


 Your calculation uses the libint2 library for the computation of 2-el integrals
 For citations please refer to: http://libint.valeyev.net

 Your ORCA version has been built with support for libXC version: 6.2.2
 For citations please refer to: https://libxc.gitlab.io

 This ORCA versions uses:
   CBLAS   interface :  Fast vector & matrix operations
   LAPACKE interface :  Fast linear algebra routines
   SCALAPACK package :  Parallel linear algebra routines
   Shared memory     :  Shared parallel matrices
   BLAS/LAPACK       :  OpenBLAS 0.3.27  USE64BITINT DYNAMIC_ARCH NO_AFFINITY Haswell SINGLE_THREADED
        Core in use  :  Haswell
   Copyright (c) 2011-2014, The OpenBLAS Project


NOTE: MaxCore=2000 MB was set to SCF,MP2,MDCI,CIPSI,MRCI and CIS
      => If you want to overwrite this, your respective input block should be placed after the MaxCore statement
Your calculation utilizes the atom-pairwise dispersion correction
based on EEQ partial charges (D4)


================================================================================

----- Orbital basis set information -----
Your calculation utilizes the basis: def2-QZVPPD
   F. Weigend and R. Ahlrichs, Phys. Chem. Chem. Phys. 7, 3297 (2005).
   D. Rappoport and F. Furche, J. Chem. Phys. 133, 134105 (2010)
   D. Rappoport, J. Chem. Phys. 155, 124102 (2021).

----- AuxJ basis set information -----
Your calculation utilizes the auxiliary basis: def2/J
   F. Weigend, Phys. Chem. Chem. Phys. 8, 1057 (2006).

----- AuxC basis set information -----
Your calculation utilizes the auxiliary basis: def2-QZVPPD/C
   A. Hellweg, C. Hattig, S. Hofener and W. Klopper, Theor. Chem. Acc. 117, 587 (2007).
  A. Hellweg and D. Rappoport; Phys. Chem. Chem. Phys. 17, 1010 (2015).

================================================================================
                                        WARNINGS
                       Please study these warnings very carefully!
================================================================================


WARNING: No MP2 level density has been requested!
         To calculate MP2 level properties use
         %mp2 Density relaxed end
         or
         %mp2 Density unrelaxed end
         Otherwise for double-hybrid DFT only the energy is correct!

WARNING: The frozen-core approximation is turned on by default for 
         the MP2 part of double-hybrid DFT.

================================================================================
                                       INPUT FILE
================================================================================
NAME = oh-pg_cplx.inp
|  1> # ------------------------------------
|  2> # OH_POPG (complex); ion pair-pi
|  3> # ------------------------------------
|  4> ! SP revDSD-PBEP86-D4/2021 def2-QZVPPD RIJCOSX def2/J TightSCF CPCM
|  5> %basis
|  6>   basis   "def2-QZVPPD"
|  7>   aux     "def2/J"           # RI-J (for SCF/RIJCOSX)
|  8>   auxC    "def2-QZVPPD/C"    # required for RI-MP2 (AuxC)
|  9> end
| 10> %pal
| 11>     nprocs 10
| 12> end
| 13> %MaxCore 2000
| 14> %cpcm 
| 15>    epsilon 3.0 
| 16> end
| 17> *xyz 0 1
| 18> # POPG1
| 19> C     -5.46300      4.58600      -2.76900
| 20> C     -2.52600      1.26600      -3.33600
| 21> O     -4.15900      4.10300      -2.98300
| 22> O     -1.89600      3.82300      -1.92000
| 23> O     -4.07900      3.38500      -0.51600
| 24> O     -3.36900      1.77200      -2.32900
| 25> P     -3.31700      3.30800      -1.80300
| 26> H     -2.75600      0.21400      -3.50900
| 27> H     -2.68200      1.82800      -4.25700
| 28> H     -1.48700      1.36400      -3.02300
| 29> H     -5.82400      5.07300      -3.67500
| 30> H     -5.45500      5.30400      -1.94900
| 31> H     -6.12200      3.75500      -2.51600
| 32> # Orn2
| 33> C     -1.78200      4.40500       1.95200
| 34> C     -1.94400      5.91200       1.79200
| 35> H     -0.99400      6.43000       2.01400
| 36> H     -2.65800      6.27300       2.54800
| 37> C     -2.48600      6.40500       0.46000
| 38> H     -2.66700      7.48800       0.50800
| 39> H     -3.43700      5.90700       0.22100
| 40> N     -1.57700      6.15200      -0.67800
| 41> H     -1.84000      6.72600      -1.49600
| 42> H     -0.58000      6.27900      -0.44800
| 43> H     -1.66800      5.15900      -1.05700
| 44> H     -2.72800      3.91200       1.72900
| 45> H     -1.48800      4.17900       2.97700
| 46> H     -1.01500      4.04700       1.26700
| 47> # His3
| 48> C      0.51500     -0.46800       2.19100
| 49> N     -1.32900      0.74700       0.92500
| 50> N     -3.13300     -0.11800       1.83400
| 51> H     -4.11300     -0.28500       2.02500
| 52> C     -0.94700     -0.20000       1.85200
| 53> C     -2.64600      0.77400       0.94500
| 54> H     -3.28600      1.43400       0.35400
| 55> C     -2.06800     -0.75000       2.42400
| 56> H     -2.19200     -1.51600       3.18700
| 57> H      0.57600     -1.25200       2.94500
| 58> H      0.97100      0.44400       2.57700
| 59> H      1.04300     -0.78600       1.29200
| 60> *
| 61> 
| 62> 
| 63> 
| 64>                          ****END OF INPUT****
================================================================================

                       ****************************
                       * Single Point Calculation *
                       ****************************

---------------------------------
CARTESIAN COORDINATES (ANGSTROEM)
---------------------------------
  C     -5.463000    4.586000   -2.769000
  C     -2.526000    1.266000   -3.336000
  O     -4.159000    4.103000   -2.983000
  O     -1.896000    3.823000   -1.920000
  O     -4.079000    3.385000   -0.516000
  O     -3.369000    1.772000   -2.329000
  P     -3.317000    3.308000   -1.803000
  H     -2.756000    0.214000   -3.509000
  H     -2.682000    1.828000   -4.257000
  H     -1.487000    1.364000   -3.023000
  H     -5.824000    5.073000   -3.675000
  H     -5.455000    5.304000   -1.949000
  H     -6.122000    3.755000   -2.516000
  C     -1.782000    4.405000    1.952000
  C     -1.944000    5.912000    1.792000
  H     -0.994000    6.430000    2.014000
  H     -2.658000    6.273000    2.548000
  C     -2.486000    6.405000    0.460000
  H     -2.667000    7.488000    0.508000
  H     -3.437000    5.907000    0.221000
  N     -1.577000    6.152000   -0.678000
  H     -1.840000    6.726000   -1.496000
  H     -0.580000    6.279000   -0.448000
  H     -1.668000    5.159000   -1.057000
  H     -2.728000    3.912000    1.729000
  H     -1.488000    4.179000    2.977000
  H     -1.015000    4.047000    1.267000
  C      0.515000   -0.468000    2.191000
  N     -1.329000    0.747000    0.925000
  N     -3.133000   -0.118000    1.834000
  H     -4.113000   -0.285000    2.025000
  C     -0.947000   -0.200000    1.852000
  C     -2.646000    0.774000    0.945000
  H     -3.286000    1.434000    0.354000
  C     -2.068000   -0.750000    2.424000
  H     -2.192000   -1.516000    3.187000
  H      0.576000   -1.252000    2.945000
  H      0.971000    0.444000    2.577000
  H      1.043000   -0.786000    1.292000

----------------------------
CARTESIAN COORDINATES (A.U.)
----------------------------
  NO LB      ZA    FRAG     MASS         X           Y           Z
   0 C     6.0000    0    12.011  -10.323574    8.666284   -5.232652
   1 C     6.0000    0    12.011   -4.773448    2.392393   -6.304126
   2 O     8.0000    0    15.999   -7.859371    7.753546   -5.637053
   3 O     8.0000    0    15.999   -3.582921    7.224423   -3.628274
   4 O     8.0000    0    15.999   -7.708193    6.396723   -0.975099
   5 O     8.0000    0    15.999   -6.366487    3.348595   -4.401172
   6 P    15.0000    0    30.974   -6.268222    6.251214   -3.407176
   7 H     1.0000    0     1.008   -5.208085    0.404401   -6.631049
   8 H     1.0000    0     1.008   -5.068245    3.454419   -8.044564
   9 H     1.0000    0     1.008   -2.810023    2.577586   -5.712642
  10 H     1.0000    0     1.008  -11.005765    9.586581   -6.944744
  11 H     1.0000    0     1.008  -10.308456   10.023107   -3.683076
  12 H     1.0000    0     1.008  -11.568903    7.095922   -4.754551
  13 C     6.0000    0    12.011   -3.367492    8.324244    3.688745
  14 C     6.0000    0    12.011   -3.673628   11.172061    3.386389
  15 H     1.0000    0     1.008   -1.878388   12.150939    3.805908
  16 H     1.0000    0     1.008   -5.022892   11.854252    4.815022
  17 C     6.0000    0    12.011   -4.697859   12.103696    0.869274
  18 H     1.0000    0     1.008   -5.039900   14.150269    0.959981
  19 H     1.0000    0     1.008   -6.494989   11.162612    0.417629
  20 N     7.0000    0    14.007   -2.980098   11.625595   -1.281234
  21 H     1.0000    0     1.008   -3.477096   12.710298   -2.827030
  22 H     1.0000    0     1.008   -1.096041   11.865590   -0.846597
  23 H     1.0000    0     1.008   -3.152063    9.749097   -1.997441
  24 H     1.0000    0     1.008   -5.155173    7.392609    3.267336
  25 H     1.0000    0     1.008   -2.811912    7.897166    5.625715
  26 H     1.0000    0     1.008   -1.918072    7.647722    2.394283
  27 C     6.0000    0    12.011    0.973209   -0.884392    4.140390
  28 N     7.0000    0    14.007   -2.511446    1.411625    1.747997
  29 N     7.0000    0    14.007   -5.920512   -0.222988    3.465758
  30 H     1.0000    0     1.008   -7.772444   -0.538572    3.826695
  31 C     6.0000    0    12.011   -1.789571   -0.377945    3.499773
  32 C     6.0000    0    12.011   -5.000215    1.462648    1.785791
  33 H     1.0000    0     1.008   -6.209640    2.709867    0.668963
  34 C     6.0000    0    12.011   -3.907954   -1.417295    4.580696
  35 H     1.0000    0     1.008   -4.142280   -2.864825    6.022557
  36 H     1.0000    0     1.008    1.088482   -2.365937    5.565243
  37 H     1.0000    0     1.008    1.834924    0.839038    4.869824
  38 H     1.0000    0     1.008    1.970984   -1.485325    2.441526

--------------------------------
INTERNAL COORDINATES (ANGSTROEM)
--------------------------------
 C      0   0   0     0.000000000000     0.00000000     0.00000000
 C      1   0   0     4.468764706270     0.00000000     0.00000000
 O      1   2   0     1.406947404845    27.93442364     0.00000000
 O      3   1   2     2.515857309149   143.86389600   250.26777733
 O      3   1   2     2.570605570678    88.78286457   285.47474518
 O      2   1   3     1.407385519323    41.27413371   113.53939510
 P      5   3   1     1.497645485420    37.39016720   173.37779778
 H      2   1   3     1.090657141360   126.73610183   190.91255864
 H      2   1   3     1.090147237762    68.29313345   289.55192734
 H      2   1   3     1.089538434384   121.56521411    29.67856259
 H      1   2  10     1.090103664795   116.36575573   111.67056297
 H      1   2  10     1.089948622642   125.45320138   327.59846935
 H      1   2  10     1.090344440991    81.97784053   219.46982850
 C      5   3   1     3.522447018764   127.72149624   238.65237222
 C     14   5   3     1.524103999076    98.24778941    53.28412360
 H     15  14   5     1.104584989940   110.55927453   211.85328465
 H     15  14   5     1.100751107199   108.73085478    96.56305891
 C     15  14   5     1.520209525033   116.77814133   337.64522316
 H     18  15  14     1.099069606531   109.87714869   173.42932309
 H     18  15  14     1.099784524350   110.60113217    53.97110001
 N     18  15  14     1.478287522778   113.56388907   294.07981248
 H     21  18  15     1.033329086013   110.96655080   196.31745090
 H     21  18  15     1.031037341710   113.69036924   321.94059116
 H     21  18  15     1.066757235738   112.35575593    82.39294774
 H     14   5   3     1.089813745555    32.81626544   166.68176755
 H     14   5   3     1.090016972345   140.77822863   188.41835398
 H     14   5   3     1.088888424036    85.60477640   304.18159820
 C     27  14   5     4.855914023127   114.07475183   263.64222377
 N     28  27  14     2.545450254867    39.94121878    85.93291805
 N     29  28  27     2.197480830406   101.60064765   237.24879045
 H     30  29  28     1.012309241289   159.67268153   178.42936675
 C     29  28  27     1.379152638398    30.37789355   233.70619163
 C     29  28  27     1.317428555938   136.58761784   239.21664079
 H     33  29  28     1.092923144599   126.12594433   175.17636150
 C     30  29  28     1.371768566486    73.85403931   357.94796891
 H     35  30  29     1.088255944160   122.50556025   179.82737804
 H     28  27  14     1.089446189584   144.92946376   340.07924613
 H     28  27  14     1.090264188167    54.64660511   267.46759262
 H     28  27  14     1.090004128433   105.48259196   164.30502798

---------------------------
INTERNAL COORDINATES (A.U.)
---------------------------
 C      0   0   0     0.000000000000     0.00000000     0.00000000
 C      1   0   0     8.444741451782     0.00000000     0.00000000
 O      1   2   0     2.658745279988    27.93442364     0.00000000
 O      3   1   2     4.754281306316   143.86389600   250.26777733
 O      3   1   2     4.857740526913    88.78286457   285.47474518
 O      2   1   3     2.659573196367    41.27413371   113.53939510
 P      5   3   1     2.830139813148    37.39016720   173.37779778
 H      2   1   3     2.061043303176   126.73610183   190.91255864
 H      2   1   3     2.060079725021    68.29313345   289.55192734
 H      2   1   3     2.058929253367   121.56521411    29.67856259
 H      1   2  10     2.059997384047   116.36575573   111.67056297
 H      1   2  10     2.059704396839   125.45320138   327.59846935
 H      1   2  10     2.060452385116    81.97784053   219.46982850
 C      5   3   1     6.656460186711   127.72149624   238.65237222
 C     14   5   3     2.880139157868    98.24778941    53.28412360
 H     15  14   5     2.087363122626   110.55927453   211.85328465
 H     15  14   5     2.080118134217   108.73085478    96.56305891
 C     15  14   5     2.872779668490   116.77814133   337.64522316
 H     18  15  14     2.076940558460   109.87714869   173.42932309
 H     18  15  14     2.078291557347   110.60113217    53.97110001
 N     18  15  14     2.793558565243   113.56388907   294.07981248
 H     21  18  15     1.952708978779   110.96655080   196.31745090
 H     21  18  15     1.948378209678   113.69036924   321.94059116
 H     21  18  15     2.015879026924   112.35575593    82.39294774
 H     14   5   3     2.059449516081    32.81626544   166.68176755
 H     14   5   3     2.059833559058   140.77822863   188.41835398
 H     14   5   3     2.057700911825    85.60477640   304.18159820
 C     27  14   5     9.176347633577   114.07475183   263.64222377
 N     28  27  14     4.810203869218    39.94121878    85.93291805
 N     29  28  27     4.152636954008   101.60064765   237.24879045
 H     30  29  28     1.912987228875   159.67268153   178.42936675
 C     29  28  27     2.606220783447    30.37789355   233.70619163
 C     29  28  27     2.489579171730   136.58761784   239.21664079
 H     33  29  28     2.065325428716   126.12594433   175.17636150
 C     30  29  28     2.592266909781    73.85403931   357.94796891
 H     35  30  29     2.056505698075   122.50556025   179.82737804
 H     28  27  14     2.058754935959   144.92946376   340.07924613
 H     28  27  14     2.060300729258    54.64660511   267.46759262
 H     28  27  14     2.059809287581   105.48259196   164.30502798

---------------------
BASIS SET INFORMATION
---------------------
There are 5 groups of distinct atoms

 Group   1 Type C   : 16s8p4d2f1g contracted to 8s4p4d2f1g pattern {82111111/5111/1111/11/1}
 Group   2 Type O   : 16s9p4d2f1g contracted to 8s5p4d2f1g pattern {82111111/51111/1111/11/1}
 Group   3 Type P   : 21s14p5d2f1g contracted to 10s6p5d2f1g pattern {10311111111/821111/11111/11/1}
 Group   4 Type H   : 7s4p2d1f contracted to 4s4p2d1f pattern {4111/1111/11/1}
 Group   5 Type N   : 16s8p4d2f1g contracted to 8s4p4d2f1g pattern {82111111/5111/1111/11/1}

Atom   0C    basis set group =>   1
Atom   1C    basis set group =>   1
Atom   2O    basis set group =>   2
Atom   3O    basis set group =>   2
Atom   4O    basis set group =>   2
Atom   5O    basis set group =>   2
Atom   6P    basis set group =>   3
Atom   7H    basis set group =>   4
Atom   8H    basis set group =>   4
Atom   9H    basis set group =>   4
Atom  10H    basis set group =>   4
Atom  11H    basis set group =>   4
Atom  12H    basis set group =>   4
Atom  13C    basis set group =>   1
Atom  14C    basis set group =>   1
Atom  15H    basis set group =>   4
Atom  16H    basis set group =>   4
Atom  17C    basis set group =>   1
Atom  18H    basis set group =>   4
Atom  19H    basis set group =>   4
Atom  20N    basis set group =>   5
Atom  21H    basis set group =>   4
Atom  22H    basis set group =>   4
Atom  23H    basis set group =>   4
Atom  24H    basis set group =>   4
Atom  25H    basis set group =>   4
Atom  26H    basis set group =>   4
Atom  27C    basis set group =>   1
Atom  28N    basis set group =>   5
Atom  29N    basis set group =>   5
Atom  30H    basis set group =>   4
Atom  31C    basis set group =>   1
Atom  32C    basis set group =>   1
Atom  33H    basis set group =>   4
Atom  34C    basis set group =>   1
Atom  35H    basis set group =>   4
Atom  36H    basis set group =>   4
Atom  37H    basis set group =>   4
Atom  38H    basis set group =>   4
---------------------------------
AUXILIARY/J BASIS SET INFORMATION
---------------------------------
There are 5 groups of distinct atoms

 Group   1 Type C   : 12s5p4d2f1g contracted to 6s4p3d1f1g pattern {711111/2111/211/2/1}
 Group   2 Type O   : 12s5p4d2f1g contracted to 6s4p3d1f1g pattern {711111/2111/211/2/1}
 Group   3 Type P   : 14s5p5d2f1g contracted to 8s4p3d1f1g pattern {71111111/2111/311/2/1}
 Group   4 Type H   : 5s2p1d contracted to 3s1p1d pattern {311/2/1}
 Group   5 Type N   : 12s5p4d2f1g contracted to 6s4p3d1f1g pattern {711111/2111/211/2/1}

Atom   0C    basis set group =>   1
Atom   1C    basis set group =>   1
Atom   2O    basis set group =>   2
Atom   3O    basis set group =>   2
Atom   4O    basis set group =>   2
Atom   5O    basis set group =>   2
Atom   6P    basis set group =>   3
Atom   7H    basis set group =>   4
Atom   8H    basis set group =>   4
Atom   9H    basis set group =>   4
Atom  10H    basis set group =>   4
Atom  11H    basis set group =>   4
Atom  12H    basis set group =>   4
Atom  13C    basis set group =>   1
Atom  14C    basis set group =>   1
Atom  15H    basis set group =>   4
Atom  16H    basis set group =>   4
Atom  17C    basis set group =>   1
Atom  18H    basis set group =>   4
Atom  19H    basis set group =>   4
Atom  20N    basis set group =>   5
Atom  21H    basis set group =>   4
Atom  22H    basis set group =>   4
Atom  23H    basis set group =>   4
Atom  24H    basis set group =>   4
Atom  25H    basis set group =>   4
Atom  26H    basis set group =>   4
Atom  27C    basis set group =>   1
Atom  28N    basis set group =>   5
Atom  29N    basis set group =>   5
Atom  30H    basis set group =>   4
Atom  31C    basis set group =>   1
Atom  32C    basis set group =>   1
Atom  33H    basis set group =>   4
Atom  34C    basis set group =>   1
Atom  35H    basis set group =>   4
Atom  36H    basis set group =>   4
Atom  37H    basis set group =>   4
Atom  38H    basis set group =>   4
---------------------------------
AUXILIARY/C BASIS SET INFORMATION
---------------------------------
There are 5 groups of distinct atoms

 Group   1 Type C   : 10s9p8d6f3g1h contracted to 10s9p8d6f3g1h pattern {1111111111/111111111/11111111/111111/111/1}
 Group   2 Type O   : 10s9p8d6f3g1h contracted to 10s9p8d6f3g1h pattern {1111111111/111111111/11111111/111111/111/1}
 Group   3 Type P   : 13s11p10d7f3g1h contracted to 13s11p10d7f3g1h pattern {1111111111111/11111111111/1111111111/1111111/111/1}
 Group   4 Type H   : 7s5p4d2f1g contracted to 7s5p4d2f1g pattern {1111111/11111/1111/11/1}
 Group   5 Type N   : 10s9p8d6f3g1h contracted to 10s9p8d6f3g1h pattern {1111111111/111111111/11111111/111111/111/1}

Atom   0C    basis set group =>   1
Atom   1C    basis set group =>   1
Atom   2O    basis set group =>   2
Atom   3O    basis set group =>   2
Atom   4O    basis set group =>   2
Atom   5O    basis set group =>   2
Atom   6P    basis set group =>   3
Atom   7H    basis set group =>   4
Atom   8H    basis set group =>   4
Atom   9H    basis set group =>   4
Atom  10H    basis set group =>   4
Atom  11H    basis set group =>   4
Atom  12H    basis set group =>   4
Atom  13C    basis set group =>   1
Atom  14C    basis set group =>   1
Atom  15H    basis set group =>   4
Atom  16H    basis set group =>   4
Atom  17C    basis set group =>   1
Atom  18H    basis set group =>   4
Atom  19H    basis set group =>   4
Atom  20N    basis set group =>   5
Atom  21H    basis set group =>   4
Atom  22H    basis set group =>   4
Atom  23H    basis set group =>   4
Atom  24H    basis set group =>   4
Atom  25H    basis set group =>   4
Atom  26H    basis set group =>   4
Atom  27C    basis set group =>   1
Atom  28N    basis set group =>   5
Atom  29N    basis set group =>   5
Atom  30H    basis set group =>   4
Atom  31C    basis set group =>   1
Atom  32C    basis set group =>   1
Atom  33H    basis set group =>   4
Atom  34C    basis set group =>   1
Atom  35H    basis set group =>   4
Atom  36H    basis set group =>   4
Atom  37H    basis set group =>   4
Atom  38H    basis set group =>   4


           ************************************************************
           *        Program running with 10 parallel MPI-processes    *
           *              working on a common directory               *
           ************************************************************
------------------------------------------------------------------------------
                             ORCA STARTUP CALCULATIONS
                           -- RI-GTO INTEGRALS CHOSEN --
------------------------------------------------------------------------------
------------------------------------------------------------------------------
                   ___                                                        
                  /   \      - P O W E R E D   B Y -                         
                 /     \                                                     
                 |  |  |   _    _      __       _____    __    __             
                 |  |  |  | |  | |    /  \     |  _  \  |  |  /  |          
                  \  \/   | |  | |   /    \    | | | |  |  | /  /          
                 / \  \   | |__| |  /  /\  \   | |_| |  |  |/  /          
                |  |  |   |  __  | /  /__\  \  |    /   |      \           
                |  |  |   | |  | | |   __   |  |    \   |  |\   \          
                \     /   | |  | | |  |  |  |  | |\  \  |  | \   \       
                 \___/    |_|  |_| |__|  |__|  |_| \__\ |__|  \__/        
                                                                              
                      - O R C A' S   B I G   F R I E N D -                    
                                      &                                       
                       - I N T E G R A L  F E E D E R -                       
                                                                              
 v1 FN, 2020, v2 2021, v3 2022-2024                                           
------------------------------------------------------------------------------


----------------------
SHARK INTEGRAL PACKAGE
----------------------

Number of atoms                             ...     39
Number of basis functions                   ...   1822
Number of shells                            ...    574
Maximum angular momentum                    ...      4
Integral batch strategy                     ... SHARK/LIBINT Hybrid
RI-J (if used) integral strategy            ... SPLIT-RIJ (Revised 2003 algorithm where possible)
Printlevel                                  ...      1
Contraction scheme used                     ... SEGMENTED contraction
Prescreening option                         ... SCHWARTZ
   Thresh                                   ... 2.500e-11
   Tcut                                     ... 2.500e-12
   Tpresel                                  ... 2.500e-12 
Coulomb Range Separation                    ... NOT USED
Exchange Range Separation                   ... NOT USED
Multipole approximations                    ... NOT USED
Finite Nucleus Model                        ... NOT USED
CABS basis                                  ... NOT available
Auxiliary Coulomb fitting basis             ... AVAILABLE
   # of basis functions in Aux-J            ...   1077
   # of shells in Aux-J                     ...    367
   Maximum angular momentum in Aux-J        ...      4
Auxiliary J/K fitting basis                 ... NOT available
Auxiliary Correlation fitting basis         ... AVAILABLE
   # of basis functions in Aux-C            ...   4125
   # of shells in Aux-C                     ...   1055
   Maximum angular momentum in Aux-C        ...      5
Auxiliary 'external' fitting basis          ... NOT available

Checking pre-screening integrals            ... done (  0.0 sec) Dimension = 574
Check shell pair data                       ... done (  0.0 sec)
Shell pair information
Shell pair cut-off parameter TPreSel        ...   2.5e-12
Total number of shell pairs                 ...    165025
Shell pairs after pre-screening             ...    109363
Total number of primitive shell pairs       ...    363359
Primitive shell pairs kept                  ...    177686
          la=0 lb=0:  16769 shell pairs
          la=1 lb=0:  26143 shell pairs
          la=1 lb=1:  10149 shell pairs
          la=2 lb=0:  16537 shell pairs
          la=2 lb=1:  12999 shell pairs
          la=2 lb=2:   4141 shell pairs
          la=3 lb=0:   7049 shell pairs
          la=3 lb=1:   5814 shell pairs
          la=3 lb=2:   3470 shell pairs
          la=3 lb=3:    711 shell pairs
          la=4 lb=0:   2183 shell pairs
          la=4 lb=1:   1801 shell pairs
          la=4 lb=2:   1095 shell pairs
          la=4 lb=3:    426 shell pairs
          la=4 lb=4:     76 shell pairs

Calculating one electron integrals          ... done (  0.2 sec)
Calculating RI/J V-Matrix + Cholesky decomp.... done (  0.0 sec)
Calculating RI/C V-Matrix + Cholesky decomp.... done (  0.7 sec)
Calculating Nuclear repulsion               ... done (  0.0 sec) ENN=   1487.394437628524 Eh

Diagonalization of the overlap matrix:
Smallest eigenvalue                        ... 5.332e-08
Time for diagonalization                   ...    0.495 sec
Threshold for overlap eigenvalues          ... 1.000e-07
Number of eigenvalues below threshold      ... 2
Smallest eigenvalue above threshold        ... 1.087e-07

IMPORTANT:
Smallest eigenvalue of S below the DiffSThresh (1.000e-06) while
Thresh>1e-12 and/or TCut>1e-13! In order to avoid SCF convergence issues,
Thresh will be set to at least 1e-12 and TCut to at least 1e-13.
This can be turned off by adding %SCF DiffSThresh -1 END to the input.

Time for construction of square roots      ...    0.315 sec
Total time needed                          ...    0.834 sec

-------------------
DFT GRID GENERATION
-------------------

General Integration Accuracy     IntAcc      ... 4.388
Radial Grid Type                 RadialGrid  ... OptM3 with GC (2021)
Angular Grid (max. ang.)         AngularGrid ... 4 (Lebedev-302)
Angular grid pruning method      GridPruning ... 4 (adaptive)
Weight generation scheme         WeightScheme... mBecke (2022)
Basis function cutoff            BFCut       ... 1.0000e-11
Integration weight cutoff        WCut        ... 1.0000e-14
Partially contracted basis set               ... off
Rotationally invariant grid construction     ... off
Angular grids for H and He will be reduced by one unit
Diffuse basis detected: some atoms will have their outermost
                        angular grid increased by 1.

Total number of grid points                  ...   181971
Total number of batches                      ...     2860
Average number of points per batch           ...       63
Average number of grid points per atom       ...     4666

--------------------
COSX GRID GENERATION
--------------------

GRIDX 1
-------
General Integration Accuracy     IntAcc      ... 3.816
Radial Grid Type                 RadialGrid  ... OptM3 with GC (2021)
Angular Grid (max. ang.)         AngularGrid ... 1 (Lebedev-50)
Angular grid pruning method      GridPruning ... 4 (adaptive)
Weight generation scheme         WeightScheme... mBecke (2022)
Basis function cutoff            BFCut       ... 1.0000e-11
Integration weight cutoff        WCut        ... 1.0000e-14
Partially contracted basis set               ... on
Rotationally invariant grid construction     ... off
Angular grids for H and He will be reduced by one unit
Diffuse basis detected: some atoms will have their outermost
                        angular grid increased by 1.

Total number of grid points                  ...    23721
Total number of batches                      ...      209
Average number of points per batch           ...      113
Average number of grid points per atom       ...      608
UseSFitting                                  ... on

GRIDX 2
-------
General Integration Accuracy     IntAcc      ... 4.020
Radial Grid Type                 RadialGrid  ... OptM3 with GC (2021)
Angular Grid (max. ang.)         AngularGrid ... 2 (Lebedev-110)
Angular grid pruning method      GridPruning ... 4 (adaptive)
Weight generation scheme         WeightScheme... mBecke (2022)
Basis function cutoff            BFCut       ... 1.0000e-11
Integration weight cutoff        WCut        ... 1.0000e-14
Partially contracted basis set               ... on
Rotationally invariant grid construction     ... off
Angular grids for H and He will be reduced by one unit
Diffuse basis detected: some atoms will have their outermost
                        angular grid increased by 1.

Total number of grid points                  ...    52645
Total number of batches                      ...      432
Average number of points per batch           ...      121
Average number of grid points per atom       ...     1350
UseSFitting                                  ... on

GRIDX 3
-------
General Integration Accuracy     IntAcc      ... 4.338
Radial Grid Type                 RadialGrid  ... OptM3 with GC (2021)
Angular Grid (max. ang.)         AngularGrid ... 3 (Lebedev-194)
Angular grid pruning method      GridPruning ... 4 (adaptive)
Weight generation scheme         WeightScheme... mBecke (2022)
Basis function cutoff            BFCut       ... 1.0000e-11
Integration weight cutoff        WCut        ... 1.0000e-14
Partially contracted basis set               ... on
Rotationally invariant grid construction     ... off
Angular grids for H and He will be reduced by one unit
Diffuse basis detected: some atoms will have their outermost
                        angular grid increased by 1.

Total number of grid points                  ...   117433
Total number of batches                      ...      935
Average number of points per batch           ...      125
Average number of grid points per atom       ...     3011
UseSFitting                                  ... on
Initializing property integral containers    ... done (  0.0 sec)

SHARK setup successfully completed in  10.4 seconds

Maximum memory used throughout the entire STARTUP-calculation: 259.6 MB


           ************************************************************
           *        Program running with 10 parallel MPI-processes    *
           *              working on a common directory               *
           ************************************************************
-------------------------------------------------------------------------------
                                 ORCA GUESS
                   Start orbitals & Density for SCF / CASSCF
-------------------------------------------------------------------------------

------------
SCF SETTINGS
------------
Hamiltonian:
 Density Functional     Method          .... DFT(GTOs)
 Exchange Functional    Exchange        .... PBE
   PBE kappa parameter   XKappa         ....  0.804000
   PBE mue parameter    XMuePBE         ....  0.219520
 Correlation Functional Correlation     .... P86
 LDA part of GGA corr.  LDAOpt          .... VWN-5
 Gradients option       PostSCFGGA      .... off
 Hybrid DFT is turned on
   Fraction HF Exchange ScalHFX         ....  0.690000
   Scaling of DF-GGA-X  ScalDFX         ....  0.310000
   Scaling of DF-GGA-C  ScalDFC         ....  0.422400
   Scaling of DF-LDA-C  ScalLDAC        ....  0.422400
   Perturbative correction              ....  1.000000
 RI-approximation to the Coulomb term is turned on
   Number of AuxJ basis functions       .... 1077
   RIJ-COSX (HFX calculated with COS-X)).... on


General Settings:
 Integral files         IntName         .... oh-pg_cplx
 Hartree-Fock type      HFTyp           .... RHF
 Total Charge           Charge          ....    0
 Multiplicity           Mult            ....    1
 Number of Electrons    NEL             ....  144
 Basis Dimension        Dim             .... 1822
 Nuclear Repulsion      ENuc            ....   1487.3944376285 Eh

Convergence Acceleration:
 AO-DIIS                CNVDIIS         .... on
   Start iteration      DIISMaxIt       ....    12
   Startup error        DIISStart       ....  0.200000
   # of expansion vecs  DIISMaxEq       ....     5
   Bias factor          DIISBfac        ....   1.050
   Max. coefficient     DIISMaxC        ....  10.000
 MO-DIIS                CNVKDIIS        .... off
 Trust-Rad. Augm. Hess. CNVTRAH         .... auto
   Auto Start mean grad. ratio tolernc. ....  1.125000
   Auto Start start iteration           ....    50
   Auto Start num. interpolation iter.  ....    10
   Max. Number of Micro iterations      ....    24
   Max. Number of Macro iterations      .... Maxiter - #DIIS iter
   Number of Davidson start vectors     ....     2
   Converg. threshold    (grad. norm)   ....   1.000e-05
   Grad. Scal. Fac. for Micro threshold ....   0.100
   Minimum threshold for Micro iter.    ....   1.000e-02
   NR start threshold (gradient norm)   ....   1.000e-04
   Initial trust radius                 ....   0.400
   Minimum AH scaling param. (alpha)    ....   1.000
   Maximum AH scaling param. (alpha)    .... 1000.000
   Quad. conv. algorithm                .... NR
   White noise on init. David. guess    .... on
   Maximum white noise                  ....   0.010
   Pseudo random numbers                .... off
   Inactive MOs                         .... canonical
   Orbital update algorithm             .... Taylor
   Preconditioner                       .... Diag
   Full preconditioner red. dimension   ....   250
 SOSCF                  CNVSOSCF        .... on
   Start iteration      SOSCFMaxIt      ....   150
   Startup grad/error   SOSCFStart      ....  0.003300
   Hessian update       SOSCFHessUp     .... L-BFGS
 Level Shifting         CNVShift        .... on
   Level shift para.    LevelShift      ....    0.2500
   Turn off err/grad.   ShiftErr        ....    0.0010
 Zerner damping         CNVZerner       .... off
 Static damping         CNVDamp         .... on
   Fraction old density DampFac         ....    0.7000
   Max. Damping (<1)    DampMax         ....    0.9800
   Min. Damping (>=0)   DampMin         ....    0.0000
   Turn off err/grad.   DampErr         ....    0.1000

SCF Procedure:
 Maximum # iterations   MaxIter         ....   125
 SCF integral mode      SCFMode         .... Direct
   Integral package                     .... SHARK and LIBINT hybrid scheme
 Reset frequency        DirectResetFreq ....    20
 Integral Threshold     Thresh          ....  1.000e-12 Eh
 Primitive CutOff       TCut            ....  1.000e-13 Eh

Convergence Tolerance:
 Convergence Check Mode ConvCheckMode   .... Total+1el-Energy
 Convergence forced     ConvForced      .... 0
 Energy Change          TolE            ....  1.000e-08 Eh
 1-El. energy change                    ....  1.000e-05 Eh
 Orbital Gradient       TolG            ....  1.000e-05
 Orbital Rotation angle TolX            ....  1.000e-05
 DIIS Error             TolErr          ....  5.000e-07

------------------------------
INITIAL GUESS: MODEL POTENTIAL
------------------------------
Loading Hartree-Fock densities                     ... done
Calculating cut-offs                               ... done
Initializing the effective Hamiltonian             ... done
Setting up the integral package (SHARK)            ... done
Starting the Coulomb interaction                   ... done (   1.7 sec)
Making the grid                                    ... done (   0.3 sec)
Mapping shells                                     ... done
Starting the XC term evaluation                    ... done (   1.2 sec)
  promolecular density results
     # of electrons  =    143.994088066
     EX              =   -127.386268319
     EC              =      0.041311186
     EX+EC           =   -127.344957133
Transforming the Hamiltonian                       ... done (   0.3 sec)
Diagonalizing the Hamiltonian                      ... done (   0.6 sec)
Back transforming the eigenvectors                 ... done (   0.2 sec)
Now organizing SCF variables                       ... done
                      ------------------
                      INITIAL GUESS DONE (   4.5 sec)
                      ------------------
             **** ENERGY FILE WAS UPDATED (oh-pg_cplx.en.tmp) ****
Finished Guess after   6.1 sec
Maximum memory used throughout the entire GUESS-calculation: 249.1 MB


           ************************************************************
           *        Program running with 10 parallel MPI-processes    *
           *              working on a common directory               *
           ************************************************************

-------------------------------------------------------------------------------------------
                                      ORCA LEAN-SCF
                              memory conserving SCF solver
-------------------------------------------------------------------------------------------

--------------------
CPCM SOLVATION MODEL
--------------------
CPCM parameters:
  Epsilon                                         ...       3.0000
  Refrac                                          ...       1.3300
  Rsolv                                           ...       1.3000
  Surface type                                    ... GAUSSIAN VDW
  Discretization scheme                           ... Constant charge density
    Threshold for H atoms                         ...       5.0000 (charges/Ang^2)
    Threshold for non-H atoms                     ...       5.0000 (charges/Ang^2)
  Epsilon function type                           ...         CPCM
Solvent:                                          ... CUSTOM
Radii:
  Scheme                                          ... Element-dependent radii
  Radius for C  used is    3.8550 Bohr (=   2.0400 Ang.)
  Radius for O  used is    3.4469 Bohr (=   1.8240 Ang.)
  Radius for P  used is    4.0818 Bohr (=   2.1600 Ang.)
  Radius for H  used is    2.4944 Bohr (=   1.3200 Ang.)
  Radius for N  used is    3.5149 Bohr (=   1.8600 Ang.)
Calculating surface                               ...        done! (  0.0s)
Cavity surface points                             ...         3477
Cavity Volume                                     ...    2240.1049
Cavity Surface-area                               ...    1264.8718
Calculating surface distance matrix               ...        done! (  0.1s)
Performing Cholesky decomposition & store         ...        done! (  0.3s)
Overall time for CPCM initialization              ...                 0.3s

----------------------------------------D-I-I-S--------------------------------------------
Iteration    Energy (Eh)           Delta-E    RMSDP     MaxDP     DIISErr   Damp  Time(sec)
-------------------------------------------------------------------------------------------
               ***  Starting incremental Fock matrix formation  ***
    1    -1159.1735077312616795     0.00e+00  3.70e-02  2.33e+01  3.69e-01  0.700  48.6
    2    -1159.4222754284767234    -2.49e-01  3.72e-02  2.40e+01  1.90e-01  0.700  28.3
                               ***Turning on AO-DIIS***
    3    -1159.5496122941942758    -1.27e-01  2.78e-02  1.85e+01  8.18e-02  0.700  27.1
    4    -1159.6266459702835618    -7.70e-02  6.72e-02  4.51e+01  5.95e-02  0.000  26.6
    5    -1159.7953655654898739    -1.69e-01  3.28e-03  1.43e+00  7.93e-03  0.000  27.4
    6    -1159.7957239990203107    -3.58e-04  9.51e-04  4.46e-01  3.52e-03  0.000  24.7
                              *** Initializing SOSCF ***
---------------------------------------S-O-S-C-F--------------------------------------
Iteration    Energy (Eh)           Delta-E    RMSDP     MaxDP     MaxGrad    Time(sec)
--------------------------------------------------------------------------------------
    7    -1159.7957931149901469    -6.91e-05  4.35e-04  1.83e-01  1.10e-03    25.1
               *** Restarting incremental Fock matrix formation ***
    8    -1159.7957740593676590     1.91e-05  3.07e-02  1.68e+01  2.34e-04    48.0
    9    -1159.7957999835628016    -2.59e-05  2.01e-03  1.06e+00  9.85e-05    43.0
   10    -1159.7958008778753083    -8.94e-07  6.33e-04  3.45e-01  4.20e-05    38.7
   11    -1159.7958010523354915    -1.74e-07  6.01e-04  3.03e-01  1.04e-05    36.4
   12    -1159.7958009520232281     1.00e-07  1.67e-04  8.00e-02  3.46e-06    36.3
   13    -1159.7958009681653948    -1.61e-08  1.44e-04  6.76e-02  3.30e-06    33.0
   14    -1159.7958009655010301     2.66e-09  1.21e-04  3.27e-02  9.02e-07    33.0
                 **** Energy Check signals convergence ****

               *****************************************************
               *                     SUCCESS                       *
               *           SCF CONVERGED AFTER  14 CYCLES          *
               *****************************************************

Recomputing exchange energy using gridx3       ... done (   79.610 sec)
Old exchange energy                            :    -89.859201722 Eh
New exchange energy                            :    -89.859028260 Eh
Exchange energy change after final integration :      0.000173463 Eh
Total energy after final integration           :  -1159.795627503 Eh
             **** ENERGY FILE WAS UPDATED (oh-pg_cplx.en.tmp) ****

----------------
TOTAL SCF ENERGY
----------------

Total Energy       :      -1159.79562750286323 Eh          -31559.64349 eV

Components:
Nuclear Repulsion  :       1487.39443762852420 Eh           40474.06031 eV
Electronic Energy  :      -2647.14921807570408 Eh          -72032.59229 eV
One Electron Energy:      -4551.54170381692074 Eh         -123853.74636 eV
Two Electron Energy:       1904.39248574121643 Eh           51821.15407 eV
CPCM Dielectric    :         -0.04102051832058 Eh              -1.11623 eV

Virial components:
Potential Energy   :      -2316.73561256389075 Eh          -63041.58099 eV
Kinetic Energy     :       1156.93998506102730 Eh           31481.93750 eV
Virial Ratio       :          2.00246827188852

DFT components:
N(Alpha)           :       72.000059252357 electrons
N(Beta)            :       72.000059252357 electrons
N(Total)           :      144.000118504714 electrons
E(X)               :      -40.205303460636 Eh       
E(C)               :       -2.283392816620 Eh       
E(XC)              :      -42.488696277256 Eh       

CPCM Solvation Model Properties:
Surface-charge          :         -0.03323850356511
Corrected charge        :          0.00000000000000
Outlying charge corr.   :          0.00004017093687 Eh               0.00109 eV
Free-energy (cav+disp)  :  This term is not implemented in the current solvation scheme

---------------
SCF CONVERGENCE
---------------

  Last Energy change         ...   -2.6644e-09  Tolerance :   1.0000e-08
  Last MAX-Density change    ...    3.2737e-02  Tolerance :   1.0000e-07
  Last RMS-Density change    ...    1.2115e-04  Tolerance :   5.0000e-09
  Last DIIS Error            ...    1.1000e-03  Tolerance :   5.0000e-07
  Last Orbital Gradient      ...    9.0213e-07  Tolerance :   1.0000e-05
  Last Orbital Rotation      ...    1.0053e-06  Tolerance :   1.0000e-05


----------------
ORBITAL ENERGIES
----------------

  NO   OCC          E(Eh)            E(eV) 
   0   2.0000     -78.911097     -2147.2801 
   1   2.0000     -19.998110      -544.1762 
   2   2.0000     -19.993888      -544.0614 
   3   2.0000     -19.941407      -542.6333 
   4   2.0000     -19.929241      -542.3022 
   5   2.0000     -15.176061      -412.9616 
   6   2.0000     -15.119027      -411.4096 
   7   2.0000     -15.046067      -409.4243 
   8   2.0000     -10.873194      -295.8746 
   9   2.0000     -10.858303      -295.4694 
  10   2.0000     -10.848363      -295.1990 
  11   2.0000     -10.846501      -295.1483 
  12   2.0000     -10.828594      -294.6610 
  13   2.0000     -10.827161      -294.6220 
  14   2.0000     -10.824470      -294.5488 
  15   2.0000     -10.800340      -293.8922 
  16   2.0000     -10.795468      -293.7596 
  17   2.0000      -7.190626      -195.6669 
  18   2.0000      -5.188625      -141.1897 
  19   2.0000      -5.187607      -141.1620 
  20   2.0000      -5.186000      -141.1182 
  21   2.0000      -1.266750       -34.4700 
  22   2.0000      -1.217584       -33.1322 
  23   2.0000      -1.207950       -32.8700 
  24   2.0000      -1.180307       -32.1178 
  25   2.0000      -1.156606       -31.4728 
  26   2.0000      -1.125136       -30.6165 
  27   2.0000      -1.042972       -28.3807 
  28   2.0000      -0.961629       -26.1673 
  29   2.0000      -0.919931       -25.0326 
  30   2.0000      -0.851575       -23.1725 
  31   2.0000      -0.846968       -23.0472 
  32   2.0000      -0.838328       -22.8121 
  33   2.0000      -0.826191       -22.4818 
  34   2.0000      -0.742904       -20.2154 
  35   2.0000      -0.729335       -19.8462 
  36   2.0000      -0.685354       -18.6494 
  37   2.0000      -0.684872       -18.6363 
  38   2.0000      -0.678524       -18.4636 
  39   2.0000      -0.659368       -17.9423 
  40   2.0000      -0.652662       -17.7598 
  41   2.0000      -0.608637       -16.5618 
  42   2.0000      -0.600237       -16.3333 
  43   2.0000      -0.575505       -15.6603 
  44   2.0000      -0.568581       -15.4719 
  45   2.0000      -0.550340       -14.9755 
  46   2.0000      -0.548370       -14.9219 
  47   2.0000      -0.543310       -14.7842 
  48   2.0000      -0.540144       -14.6981 
  49   2.0000      -0.537977       -14.6391 
  50   2.0000      -0.534051       -14.5323 
  51   2.0000      -0.530258       -14.4291 
  52   2.0000      -0.519925       -14.1479 
  53   2.0000      -0.502149       -13.6642 
  54   2.0000      -0.490536       -13.3482 
  55   2.0000      -0.478838       -13.0298 
  56   2.0000      -0.472925       -12.8690 
  57   2.0000      -0.463907       -12.6235 
  58   2.0000      -0.446631       -12.1534 
  59   2.0000      -0.439668       -11.9640 
  60   2.0000      -0.436186       -11.8692 
  61   2.0000      -0.435228       -11.8432 
  62   2.0000      -0.432978       -11.7819 
  63   2.0000      -0.413171       -11.2430 
  64   2.0000      -0.397867       -10.8265 
  65   2.0000      -0.395235       -10.7549 
  66   2.0000      -0.376127       -10.2349 
  67   2.0000      -0.364923        -9.9300 
  68   2.0000      -0.364682        -9.9235 
  69   2.0000      -0.361469        -9.8361 
  70   2.0000      -0.344292        -9.3687 
  71   2.0000      -0.273115        -7.4318 
  72   0.0000       0.030169         0.8209 
  73   0.0000       0.043030         1.1709 
  74   0.0000       0.047731         1.2988 
  75   0.0000       0.050413         1.3718 
  76   0.0000       0.059811         1.6275 
  77   0.0000       0.060904         1.6573 
  78   0.0000       0.066452         1.8083 
  79   0.0000       0.073898         2.0109 
  80   0.0000       0.074510         2.0275 
  81   0.0000       0.082006         2.2315 
  82   0.0000       0.084923         2.3109 
*Only the first 10 virtual orbitals were printed.

                    ********************************
                    * MULLIKEN POPULATION ANALYSIS *
                    ********************************

-----------------------
MULLIKEN ATOMIC CHARGES
-----------------------
   0 C :   -0.181891
   1 C :   -0.280525
   2 O :   -0.389895
   3 O :   -0.792757
   4 O :   -0.802405
   5 O :   -0.382441
   6 P :    0.995031
   7 H :    0.033592
   8 H :    0.174996
   9 H :    0.327313
  10 H :    0.132451
  11 H :    0.179267
  12 H :    0.150863
  13 C :   -0.421537
  14 C :   -0.090149
  15 H :    0.032320
  16 H :    0.075472
  17 C :    0.033787
  18 H :    0.104569
  19 H :    0.214855
  20 N :   -0.221690
  21 H :    0.304596
  22 H :    0.294702
  23 H :    0.077350
  24 H :    0.044192
  25 H :    0.096706
  26 H :    0.319269
  27 C :   -0.442537
  28 N :   -0.699818
  29 N :   -0.295020
  30 H :    0.285412
  31 C :    0.306651
  32 C :    0.419738
  33 H :   -0.109158
  34 C :   -0.180420
  35 H :    0.437377
  36 H :    0.018432
  37 H :    0.153887
  38 H :    0.077414
Sum of atomic charges:    0.0000000

--------------------------------
MULLIKEN REDUCED ORBITAL CHARGES
--------------------------------
  0 C s       :     3.214994  s :     3.214994
      pz      :     1.062746  p :     2.806734
      px      :     0.668858
      py      :     1.075129
      dz2     :     0.014894  d :     0.143468
      dxz     :     0.017223
      dyz     :     0.048767
      dx2y2   :     0.017064
      dxy     :     0.045520
      f0      :     0.001623  f :     0.014980
      f+1     :     0.001622
      f-1     :     0.001810
      f+2     :     0.001402
      f-2     :     0.001811
      f+3     :     0.004158
      f-3     :     0.002555
      g0      :     0.000108  g :     0.001714
      g+1     :     0.000214
      g-1     :     0.000066
      g+2     :     0.000155
      g-2     :     0.000173
      g+3     :     0.000084
      g-3     :     0.000190
      g+4     :     0.000423
      g-4     :     0.000301

  1 C s       :     3.227898  s :     3.227898
      pz      :     0.874288  p :     2.898544
      px      :     1.005934
      py      :     1.018323
      dz2     :     0.048839  d :     0.137671
      dxz     :     0.020347
      dyz     :     0.017528
      dx2y2   :     0.046982
      dxy     :     0.003976
      f0      :     0.002534  f :     0.014703
      f+1     :     0.002618
      f-1     :     0.001583
      f+2     :     0.003178
      f-2     :     0.002201
      f+3     :     0.001421
      f-3     :     0.001169
      g0      :     0.000129  g :     0.001707
      g+1     :     0.000271
      g-1     :     0.000189
      g+2     :     0.000242
      g-2     :     0.000267
      g+3     :     0.000230
      g-3     :     0.000212
      g+4     :     0.000105
      g-4     :     0.000063

  2 O s       :     3.699922  s :     3.699922
      pz      :     1.653964  p :     4.675956
      px      :     1.326183
      py      :     1.695809
      dz2     :    -0.000073  d :     0.009811
      dxz     :    -0.001485
      dyz     :     0.001067
      dx2y2   :     0.008575
      dxy     :     0.001726
      f0      :     0.000379  f :     0.004054
      f+1     :     0.000537
      f-1     :     0.000344
      f+2     :     0.000495
      f-2     :     0.000555
      f+3     :     0.000744
      f-3     :     0.001001
      g0      :     0.000014  g :     0.000153
      g+1     :     0.000022
      g-1     :     0.000009
      g+2     :     0.000016
      g-2     :     0.000019
      g+3     :     0.000012
      g-3     :     0.000018
      g+4     :     0.000020
      g-4     :     0.000024

  3 O s       :     3.938655  s :     3.938655
      pz      :     1.735632  p :     4.833361
      px      :     1.445773
      py      :     1.651956
      dz2     :     0.001442  d :     0.018616
      dxz     :     0.003927
      dyz     :     0.003782
      dx2y2   :     0.003078
      dxy     :     0.006386
      f0      :     0.000269  f :     0.002049
      f+1     :     0.000245
      f-1     :     0.000090
      f+2     :     0.000230
      f-2     :     0.000222
      f+3     :     0.000580
      f-3     :     0.000412
      g0      :     0.000005  g :     0.000077
      g+1     :     0.000010
      g-1     :     0.000002
      g+2     :     0.000006
      g-2     :     0.000005
      g+3     :     0.000004
      g-3     :     0.000008
      g+4     :     0.000020
      g-4     :     0.000016

  4 O s       :     3.937031  s :     3.937031
      pz      :     1.489409  p :     4.849221
      px      :     1.639894
      py      :     1.719918
      dz2     :     0.004417  d :     0.013877
      dxz     :     0.003089
      dyz     :     0.003117
      dx2y2   :     0.001758
      dxy     :     0.001496
      f0      :     0.000595  f :     0.002198
      f+1     :     0.000446
      f-1     :     0.000375
      f+2     :     0.000299
      f-2     :     0.000373
      f+3     :     0.000054
      f-3     :     0.000057
      g0      :     0.000014  g :     0.000078
      g+1     :     0.000020
      g-1     :     0.000007
      g+2     :     0.000013
      g-2     :     0.000013
      g+3     :     0.000005
      g-3     :     0.000005
      g+4     :     0.000000
      g-4     :     0.000001

  5 O s       :     3.734569  s :     3.734569
      pz      :     1.534825  p :     4.642178
      px      :     1.661677
      py      :     1.445676
      dz2     :     0.001792  d :     0.001407
      dxz     :     0.008126
      dyz     :    -0.006318
      dx2y2   :    -0.000538
      dxy     :    -0.001655
      f0      :     0.000480  f :     0.004130
      f+1     :     0.000568
      f-1     :     0.000704
      f+2     :     0.000708
      f-2     :     0.000758
      f+3     :     0.000484
      f-3     :     0.000429
      g0      :     0.000011  g :     0.000157
      g+1     :     0.000017
      g-1     :     0.000012
      g+2     :     0.000024
      g-2     :     0.000024
      g+3     :     0.000017
      g-3     :     0.000028
      g+4     :     0.000013
      g-4     :     0.000013

  6 P s       :     5.168312  s :     5.168312
      pz      :     2.630156  p :     7.874839
      px      :     2.619803
      py      :     2.624881
      dz2     :     0.166661  d :     0.781437
      dxz     :     0.158219
      dyz     :     0.144878
      dx2y2   :     0.154251
      dxy     :     0.157426
      f0      :     0.027036  f :     0.154387
      f+1     :     0.015724
      f-1     :     0.022737
      f+2     :     0.028989
      f-2     :     0.016416
      f+3     :     0.029453
      f-3     :     0.014032
      g0      :     0.002738  g :     0.025993
      g+1     :     0.003689
      g-1     :     0.001845
      g+2     :     0.003644
      g-2     :     0.002991
      g+3     :     0.002366
      g-3     :     0.003214
      g+4     :     0.003142
      g-4     :     0.002365

  7 H s       :     0.908444  s :     0.908444
      pz      :     0.006667  p :     0.054504
      px      :     0.005293
      py      :     0.042545
      dz2     :     0.000188  d :     0.003247
      dxz     :     0.000131
      dyz     :     0.001330
      dx2y2   :     0.000577
      dxy     :     0.001022
      f0      :     0.000027  f :     0.000212
      f+1     :     0.000003
      f-1     :     0.000019
      f+2     :     0.000054
      f-2     :     0.000020
      f+3     :     0.000044
      f-3     :     0.000046

  8 H s       :     0.756295  s :     0.756295
      pz      :     0.039854  p :     0.064859
      px      :     0.006321
      py      :     0.018684
      dz2     :     0.001159  d :     0.003631
      dxz     :     0.001191
      dyz     :     0.000576
      dx2y2   :     0.000521
      dxy     :     0.000183
      f0      :     0.000062  f :     0.000219
      f+1     :     0.000051
      f-1     :     0.000019
      f+2     :     0.000049
      f-2     :     0.000028
      f+3     :    -0.000000
      f-3     :     0.000011

  9 H s       :     0.631315  s :     0.631315
      pz      :     0.011283  p :     0.037409
      px      :     0.017612
      py      :     0.008514
      dz2     :     0.000315  d :     0.003740
      dxz     :     0.001136
      dyz     :     0.000190
      dx2y2   :     0.000629
      dxy     :     0.001470
      f0      :     0.000015  f :     0.000223
      f+1     :     0.000033
      f-1     :     0.000003
      f+2     :     0.000034
      f-2     :     0.000021
      f+3     :     0.000030
      f-3     :     0.000086

 10 H s       :     0.817880  s :     0.817880
      pz      :     0.023614  p :     0.046165
      px      :     0.013677
      py      :     0.008874
      dz2     :     0.000948  d :     0.003292
      dxz     :     0.000677
      dyz     :     0.000676
      dx2y2   :     0.000462
      dxy     :     0.000529
      f0      :     0.000055  f :     0.000212
      f+1     :     0.000029
      f-1     :     0.000022
      f+2     :     0.000052
      f-2     :     0.000032
      f+3     :     0.000007
      f-3     :     0.000015

 11 H s       :     0.756686  s :     0.756686
      pz      :     0.024381  p :     0.059927
      px      :     0.009627
      py      :     0.025919
      dz2     :     0.001428  d :     0.003889
      dxz     :     0.000681
      dyz     :     0.000512
      dx2y2   :     0.000482
      dxy     :     0.000787
      f0      :     0.000078  f :     0.000231
      f+1     :     0.000012
      f-1     :     0.000044
      f+2     :     0.000024
      f-2     :     0.000038
      f+3     :     0.000022
      f-3     :     0.000015

 12 H s       :     0.796597  s :     0.796597
      pz      :     0.007833  p :     0.048475
      px      :     0.017953
      py      :     0.022689
      dz2     :     0.000412  d :     0.003837
      dxz     :     0.000542
      dyz     :     0.001045
      dx2y2   :     0.001364
      dxy     :     0.000474
      f0      :     0.000027  f :     0.000228
      f+1     :     0.000019
      f-1     :     0.000030
      f+2     :     0.000020
      f-2     :     0.000053
      f+3     :     0.000038
      f-3     :     0.000042

 13 C s       :     3.370500  s :     3.370500
      pz      :     1.004905  p :     2.986218
      px      :     1.092158
      py      :     0.889156
      dz2     :     0.014731  d :     0.056656
      dxz     :     0.019506
      dyz     :     0.012695
      dx2y2   :    -0.006284
      dxy     :     0.016008
      f0      :     0.001477  f :     0.007562
      f+1     :     0.001018
      f-1     :     0.000865
      f+2     :     0.000840
      f-2     :     0.000214
      f+3     :     0.001572
      f-3     :     0.001577
      g0      :     0.000052  g :     0.000600
      g+1     :     0.000031
      g-1     :     0.000081
      g+2     :     0.000063
      g-2     :     0.000054
      g+3     :     0.000011
      g-3     :     0.000089
      g+4     :     0.000096
      g-4     :     0.000123

 14 C s       :     3.370168  s :     3.370168
      pz      :     0.826699  p :     2.618713
      px      :     0.973734
      py      :     0.818280
      dz2     :     0.020828  d :     0.087960
      dxz     :     0.021686
      dyz     :     0.017409
      dx2y2   :     0.013093
      dxy     :     0.014943
      f0      :     0.002601  f :     0.012389
      f+1     :     0.001884
      f-1     :     0.001623
      f+2     :     0.002094
      f-2     :     0.000529
      f+3     :     0.002027
      f-3     :     0.001631
      g0      :     0.000102  g :     0.000919
      g+1     :     0.000096
      g-1     :     0.000135
      g+2     :     0.000124
      g-2     :     0.000116
      g+3     :     0.000030
      g-3     :     0.000092
      g+4     :     0.000099
      g-4     :     0.000124

 15 H s       :     0.948283  s :     0.948283
      pz      :    -0.000647  p :     0.014949
      px      :     0.014695
      py      :     0.000901
      dz2     :     0.000340  d :     0.004209
      dxz     :     0.001316
      dyz     :     0.000291
      dx2y2   :     0.001520
      dxy     :     0.000742
      f0      :     0.000025  f :     0.000240
      f+1     :     0.000028
      f-1     :     0.000010
      f+2     :     0.000031
      f-2     :     0.000034
      f+3     :     0.000096
      f-3     :     0.000015

 16 H s       :     0.904747  s :     0.904747
      pz      :    -0.000733  p :     0.015220
      px      :     0.020316
      py      :    -0.004363
      dz2     :     0.001581  d :     0.004317
      dxz     :     0.000462
      dyz     :     0.000666
      dx2y2   :     0.000875
      dxy     :     0.000733
      f0      :     0.000054  f :     0.000244
      f+1     :     0.000044
      f-1     :     0.000020
      f+2     :     0.000047
      f-2     :     0.000031
      f+3     :     0.000040
      f-3     :     0.000009

 17 C s       :     3.291869  s :     3.291869
      pz      :     0.668588  p :     2.539340
      px      :     0.969877
      py      :     0.900876
      dz2     :     0.021039  d :     0.118438
      dxz     :     0.014090
      dyz     :     0.025581
      dx2y2   :     0.053157
      dxy     :     0.004571
      f0      :     0.003429  f :     0.015320
      f+1     :     0.003046
      f-1     :     0.001547
      f+2     :     0.002802
      f-2     :     0.002299
      f+3     :     0.000837
      f-3     :     0.001360
      g0      :     0.000149  g :     0.001246
      g+1     :     0.000244
      g-1     :     0.000101
      g+2     :     0.000237
      g-2     :     0.000206
      g+3     :     0.000108
      g-3     :     0.000099
      g+4     :     0.000032
      g-4     :     0.000071

 18 H s       :     0.877473  s :     0.877473
      pz      :     0.005116  p :     0.013638
      px      :     0.010096
      py      :    -0.001574
      dz2     :     0.000205  d :     0.004095
      dxz     :     0.000275
      dyz     :     0.001678
      dx2y2   :     0.000454
      dxy     :     0.001483
      f0      :     0.000035  f :     0.000225
      f+1     :     0.000009
      f-1     :     0.000013
      f+2     :     0.000038
      f-2     :     0.000025
      f+3     :     0.000085
      f-3     :     0.000021

 19 H s       :     0.745985  s :     0.745985
      pz      :     0.017493  p :     0.034681
      px      :     0.000882
      py      :     0.016306
      dz2     :     0.000348  d :     0.004248
      dxz     :     0.001522
      dyz     :     0.000205
      dx2y2   :     0.001497
      dxy     :     0.000677
      f0      :     0.000026  f :     0.000230
      f+1     :     0.000025
      f-1     :     0.000009
      f+2     :     0.000045
      f-2     :     0.000017
      f+3     :     0.000094
      f-3     :     0.000014

 20 N s       :     3.591872  s :     3.591872
      pz      :     1.162786  p :     3.551361
      px      :     1.173380
      py      :     1.215194
      dz2     :     0.016358  d :     0.073289
      dxz     :     0.013381
      dyz     :     0.020489
      dx2y2   :     0.018620
      dxy     :     0.004440
      f0      :     0.000755  f :     0.004874
      f+1     :     0.001110
      f-1     :     0.000454
      f+2     :     0.001259
      f-2     :     0.000599
      f+3     :     0.000467
      f-3     :     0.000229
      g0      :     0.000026  g :     0.000295
      g+1     :     0.000055
      g-1     :     0.000020
      g+2     :     0.000057
      g-2     :     0.000037
      g+3     :     0.000033
      g-3     :     0.000037
      g+4     :     0.000022
      g-4     :     0.000009

 21 H s       :     0.654702  s :     0.654702
      pz      :     0.019942  p :     0.033008
      px      :     0.010747
      py      :     0.002319
      dz2     :     0.002132  d :     0.007068
      dxz     :     0.001827
      dyz     :     0.001140
      dx2y2   :     0.001113
      dxy     :     0.000856
      f0      :     0.000167  f :     0.000626
      f+1     :     0.000082
      f-1     :     0.000113
      f+2     :     0.000126
      f-2     :     0.000095
      f+3     :     0.000014
      f-3     :     0.000029

 22 H s       :     0.658594  s :     0.658594
      pz      :     0.011104  p :     0.039013
      px      :     0.017707
      py      :     0.010201
      dz2     :     0.000528  d :     0.007056
      dxz     :     0.002721
      dyz     :     0.000252
      dx2y2   :     0.000969
      dxy     :     0.002587
      f0      :     0.000070  f :     0.000636
      f+1     :     0.000101
      f-1     :     0.000010
      f+2     :     0.000112
      f-2     :     0.000036
      f+3     :     0.000121
      f-3     :     0.000186

 23 H s       :     0.839360  s :     0.839360
      pz      :     0.013392  p :     0.073001
      px      :     0.027141
      py      :     0.032468
      dz2     :     0.001428  d :     0.009570
      dxz     :     0.000608
      dyz     :     0.003120
      dx2y2   :     0.001914
      dxy     :     0.002501
      f0      :     0.000062  f :     0.000720
      f+1     :     0.000002
      f-1     :     0.000148
      f+2     :     0.000170
      f-2     :     0.000084
      f+3     :     0.000131
      f-3     :     0.000122

 24 H s       :     0.902222  s :     0.902222
      pz      :     0.007448  p :     0.049319
      px      :     0.016445
      py      :     0.025427
      dz2     :     0.000444  d :     0.004015
      dxz     :     0.001238
      dyz     :     0.000299
      dx2y2   :     0.001288
      dxy     :     0.000745
      f0      :     0.000027  f :     0.000252
      f+1     :     0.000037
      f-1     :     0.000012
      f+2     :     0.000027
      f-2     :     0.000038
      f+3     :     0.000093
      f-3     :     0.000017

 25 H s       :     0.883038  s :     0.883038
      pz      :     0.012312  p :     0.016080
      px      :     0.007531
      py      :    -0.003764
      dz2     :     0.000861  d :     0.003926
      dxz     :     0.001298
      dyz     :     0.001284
      dx2y2   :     0.000289
      dxy     :     0.000193
      f0      :     0.000065  f :     0.000250
      f+1     :     0.000062
      f-1     :     0.000059
      f+2     :     0.000037
      f-2     :     0.000021
      f+3     :     0.000004
      f-3     :     0.000001

 26 H s       :     0.641212  s :     0.641212
      pz      :     0.014293  p :     0.035332
      px      :     0.005720
      py      :     0.015319
      dz2     :     0.001340  d :     0.003934
      dxz     :     0.000370
      dyz     :     0.000515
      dx2y2   :     0.000958
      dxy     :     0.000752
      f0      :     0.000041  f :     0.000253
      f+1     :     0.000057
      f-1     :     0.000019
      f+2     :     0.000037
      f-2     :     0.000032
      f+3     :     0.000048
      f-3     :     0.000019

 27 C s       :     3.197012  s :     3.197012
      pz      :     1.052783  p :     3.126780
      px      :     1.056019
      py      :     1.017979
      dz2     :     0.014422  d :     0.111177
      dxz     :     0.016867
      dyz     :     0.032673
      dx2y2   :     0.024176
      dxy     :     0.023040
      f0      :     0.000725  f :     0.006961
      f+1     :     0.000823
      f-1     :     0.000754
      f+2     :     0.001552
      f-2     :     0.000854
      f+3     :     0.001133
      f-3     :     0.001119
      g0      :     0.000042  g :     0.000606
      g+1     :     0.000086
      g-1     :     0.000025
      g+2     :     0.000079
      g-2     :     0.000048
      g+3     :     0.000088
      g-3     :     0.000055
      g+4     :     0.000078
      g-4     :     0.000106

 28 N s       :     3.908937  s :     3.908937
      pz      :     1.297134  p :     3.717138
      px      :     1.149751
      py      :     1.270254
      dz2     :     0.005708  d :     0.064909
      dxz     :     0.017804
      dyz     :     0.007408
      dx2y2   :     0.020284
      dxy     :     0.013706
      f0      :     0.001205  f :     0.008309
      f+1     :     0.000685
      f-1     :     0.001154
      f+2     :     0.001694
      f-2     :     0.000839
      f+3     :     0.000980
      f-3     :     0.001751
      g0      :     0.000038  g :     0.000524
      g+1     :     0.000055
      g-1     :     0.000053
      g+2     :     0.000067
      g-2     :     0.000044
      g+3     :     0.000076
      g-3     :     0.000030
      g+4     :     0.000073
      g-4     :     0.000087

 29 N s       :     3.542111  s :     3.542111
      pz      :     1.280380  p :     3.655231
      px      :     1.090119
      py      :     1.284731
      dz2     :     0.022424  d :     0.086592
      dxz     :     0.019255
      dyz     :     0.008999
      dx2y2   :     0.018379
      dxy     :     0.017535
      f0      :     0.000964  f :     0.010547
[...]
 24 H      0.9558     1.0000     0.0442     1.1733     1.1733    -0.0000
 25 H      0.9033     1.0000     0.0967     0.9440     0.9440     0.0000
 26 H      0.6807     1.0000     0.3193     0.8389     0.8389     0.0000
 27 C      6.4425     6.0000    -0.4425     3.8877     3.8877     0.0000
 28 N      7.6998     7.0000    -0.6998     2.6148     2.6148     0.0000
 29 N      7.2950     7.0000    -0.2950     3.3563     3.3563    -0.0000
 30 H      0.7146     1.0000     0.2854     0.9396     0.9396    -0.0000
 31 C      5.6933     6.0000     0.3067     3.6152     3.6152     0.0000
 32 C      5.5803     6.0000     0.4197     3.4735     3.4735     0.0000
 33 H      1.1092     1.0000    -0.1092     1.3814     1.3814     0.0000
 34 C      6.1804     6.0000    -0.1804     3.6985     3.6985    -0.0000
 35 H      0.5626     1.0000     0.4374     0.7089     0.7089     0.0000
 36 H      0.9816     1.0000     0.0184     1.2637     1.2637    -0.0000
 37 H      0.8461     1.0000     0.1539     0.9961     0.9961     0.0000
 38 H      0.9226     1.0000     0.0774     1.2316     1.2316     0.0000

  Mayer bond orders larger than 0.100000
B(  0-C ,  2-O ) :   0.6749 B(  0-C , 10-H ) :   1.0479 B(  0-C , 11-H ) :   0.9071 
B(  0-C , 12-H ) :   0.9933 B(  0-C , 27-C ) :   0.9570 B(  0-C , 31-C ) :   0.6619 
B(  0-C , 32-C ) :   0.1926 B(  0-C , 35-H ) :   0.2195 B(  0-C , 36-H ) :  -1.3754 
B(  0-C , 37-H ) :  -1.0144 B(  0-C , 38-H ) :   0.3579 B(  1-C ,  5-O ) :   0.7347 
B(  1-C ,  7-H ) :   1.1423 B(  1-C ,  8-H ) :   0.9872 B(  1-C ,  9-H ) :   0.7957 
B(  1-C , 36-H ) :  -0.1305 B(  2-O ,  5-O ) :  -0.1467 B(  2-O ,  6-P ) :   0.7039 
B(  2-O , 27-C ) :  -0.2044 B(  2-O , 31-C ) :  -0.3330 B(  2-O , 36-H ) :   0.5460 
B(  2-O , 38-H ) :   0.1294 B(  3-O ,  6-P ) :   1.6729 B(  3-O , 23-H ) :   0.4247 
B(  4-O ,  5-O ) :  -0.1489 B(  4-O ,  6-P ) :   1.9067 B(  5-O ,  6-P ) :   0.7566 
B(  6-P , 11-H ) :   0.1054 B(  6-P , 27-C ) :   0.1053 B(  6-P , 31-C ) :   0.2295 
B(  6-P , 36-H ) :  -0.6265 B(  6-P , 37-H ) :   0.1125 B(  7-H ,  8-H ) :   0.1095 
B( 10-H , 24-H ) :  -0.1189 B( 10-H , 26-H ) :   0.1558 B( 10-H , 27-C ) :  -1.0788 
B( 10-H , 28-N ) :  -0.1506 B( 10-H , 31-C ) :  -0.9872 B( 10-H , 32-C ) :  -0.5803 
B( 10-H , 34-C ) :  -0.1172 B( 10-H , 35-H ) :   0.1834 B( 10-H , 36-H ) :  -7.3054 
B( 10-H , 37-H ) :   5.1735 B( 10-H , 38-H ) :   4.7985 B( 11-H , 27-C ) :   0.3636 
B( 11-H , 31-C ) :  -0.1781 B( 11-H , 36-H ) :  -0.4208 B( 11-H , 38-H ) :   0.2075 
B( 12-H , 27-C ) :  -0.1841 B( 12-H , 28-N ) :   0.2347 B( 12-H , 31-C ) :   0.5814 
B( 12-H , 32-C ) :   0.3742 B( 12-H , 35-H ) :  -0.4267 B( 12-H , 36-H ) :   9.3032 
B( 12-H , 37-H ) :  -4.3361 B( 12-H , 38-H ) :  -5.5565 B( 13-C , 14-C ) :   0.7390 
B( 13-C , 24-H ) :   1.1480 B( 13-C , 25-H ) :   0.9875 B( 13-C , 26-H ) :   0.8376 
B( 14-C , 15-H ) :   0.9614 B( 14-C , 16-H ) :   0.9899 B( 14-C , 17-C ) :   1.0279 
B( 14-C , 36-H ) :  -0.1865 B( 14-C , 38-H ) :   0.1466 B( 15-H , 16-H ) :   0.1088 
B( 17-C , 18-H ) :   0.8246 B( 17-C , 19-H ) :   0.9210 B( 17-C , 20-N ) :   0.8311 
B( 17-C , 27-C ) :   0.7402 B( 17-C , 36-H ) :  -1.5535 B( 17-C , 37-H ) :   0.1074 
B( 17-C , 38-H ) :   0.6537 B( 18-H , 27-C ) :  -0.7126 B( 18-H , 34-C ) :   0.1090 
B( 18-H , 36-H ) :   1.4175 B( 18-H , 38-H ) :  -0.7170 B( 20-N , 21-H ) :   0.9348 
B( 20-N , 22-H ) :   0.8741 B( 20-N , 23-H ) :   0.7732 B( 24-H , 36-H ) :  -0.1652 
B( 26-H , 27-C ) :  -0.1929 B( 26-H , 36-H ) :   0.3366 B( 27-C , 31-C ) :   0.8161 
B( 27-C , 34-C ) :   0.1009 B( 27-C , 36-H ) :   1.1098 B( 27-C , 37-H ) :   0.9031 
B( 27-C , 38-H ) :   1.0361 B( 28-N , 31-C ) :   1.2481 B( 28-N , 32-C ) :   1.2672 
B( 28-N , 33-H ) :   0.1295 B( 29-N , 30-H ) :   0.8813 B( 29-N , 31-C ) :  -0.1137 
B( 29-N , 32-C ) :   1.2253 B( 29-N , 33-H ) :   0.1082 B( 29-N , 34-C ) :   1.1744 
B( 31-C , 32-C ) :  -0.1718 B( 31-C , 34-C ) :   1.6652 B( 31-C , 36-H ) :   0.1096 
B( 32-C , 33-H ) :   1.1905 B( 33-H , 34-C ) :  -0.1404 B( 34-C , 35-H ) :   0.7142 
B( 34-C , 36-H ) :   0.1533 

-------
TIMINGS
-------

Total SCF time: 0 days 0 hours 9 min 19 sec 

Total time                  ....     559.721 sec
Sum of individual times     ....     560.625 sec  (100.2%)

SCF preparation             ....       1.527 sec  (  0.3%)
Fock matrix formation       ....     533.823 sec  ( 95.4%)
  Startup                   ....       0.827 sec  (  0.2% of F)
  Split-RI-J                ....      24.974 sec  (  4.7% of F)
  Chain of spheres X        ....     420.113 sec  ( 78.7% of F)
  XC integration            ....      50.197 sec  (  9.4% of F)
    XC Preparation          ....       0.000 sec  (  0.0% of XC)
    Basis function eval.    ....       5.298 sec  ( 10.6% of XC)
    Density eval.           ....      19.195 sec  ( 38.2% of XC)
    XC-Functional eval.     ....       0.113 sec  (  0.2% of XC)
    XC-Potential eval.      ....      19.155 sec  ( 38.2% of XC)
  CPCM terms                ....      35.748 sec  (  6.7% of F)
Diagonalization             ....       0.000 sec  (  0.0%)
Density matrix formation    ....       2.255 sec  (  0.4%)
Total Energy calculation    ....       1.140 sec  (  0.2%)
Population analysis         ....       0.822 sec  (  0.1%)
Orbital Transformation      ....       2.706 sec  (  0.5%)
Orbital Orthonormalization  ....       0.000 sec  (  0.0%)
DIIS solution               ....      11.756 sec  (  2.1%)
SOSCF solution              ....       6.191 sec  (  1.1%)
Finished LeanSCF after 560.5 sec

Maximum memory used throughout the entire LEANSCF-calculation: 408.5 MB


           ************************************************************
           *        Program running with 10 parallel MPI-processes    *
           *              working on a common directory               *
           ************************************************************

------------------------------------------------------------------------------
                                ORCA  MP2 
------------------------------------------------------------------------------

Freezing NCore=42 chemical core electrons

-------------
RI-MP2 ENERGY
-------------
Dimension of the orbital basis            ... 1822
Dimension of the AuxC basis               ... 4125
Memory devoted to MP2                     ... 2000 MB   
Data format for matrix containers         ... DOUBLE
Compression type for matrix containers    ... UNCOMPRESSED
Scaling for aa/bb pairs                   ...   5.660e-02
Scaling for ab pairs                      ...   5.935e-01
Overall scaling of the MP2 energy         ...   1.000e+00

-----------------------
SHARK RI TRANSFORMATION
-----------------------

Number of basis functions                ...   1822
Number of aux functions                  ...   4125
Number of operators                      ...      1
Generation of IJK                        ... NO
Generation of IAK                        ... YES
Generation of ABK                        ... NO
Orbital Range Operator  0:   21-  71 to   72-1821

Aux basis identifier                     ...   AUXC
Contraction scheme used                  ... SEGMENTED
Do orthogonalization                     ... YES
All operator combinations                ... NO
Transpose (ia|K)                         ... NO
Integral generator used                  ... LIBINT
Starting integral generation + trafo... 
Half trafo (segmented) done. Total time = 38.9 sec. integrals= 10.6 sec trafo= 17.6 sec
Integral generation and half transformation done ( 38.9 sec)

Reading or making V^(-1/2)          ... done (  0.2 sec)
Sorting IAK integrals               ... done ( 18.8 sec)

SHARK RI integral transformation done. Total time = 58.0 sec.

Opening buffers                              ... done

Starting loop over batches of integrals:

Operator 0  - window                       ... ( 21- 71)x( 72-1821)
Operator 0  - Memory available             ...  2000 MB
Operator 0  - Memory needed per MO         ...  55.1 MB
Operator 0  - Number of orbitals per batch ... 6
Operator 0  - Number of batches            ... 1

OPERATOR  0   PASS   0:  MOs    21 ...   26 +   27 ...   32 +   33 ...   38 +   39 ...   44
                            +   45 ...   50 +   51 ...   56 +   57 ...   62 +   63 ...   68
                            +   69 ...   71
  Reading integrals       ... ok
  Internal MO  23
  Internal MO  26
Time spent in pair loops =   233.204 sec
Deleting buffers (Ka|jb) ...done

-----------------------------------------------
 RI-MP2 CORRELATION ENERGY:     -1.821500747 Eh
-----------------------------------------------


-------
TIMINGS
-------

Total time                :  299.449 sec
Integral trafo            :   58.046 sec ( 19.4%)
I/O of integrals          :    0.240 sec (  0.1%)
K(i,j) operators          :    8.542 sec (  2.9%)
T(i,j) pair energies      :    0.734 sec (  0.2%)
V**(-1/2)                 :    8.198 sec (  2.7%)


---------------------------------------
MP2 TOTAL ENERGY:    -1161.617128250 Eh
---------------------------------------

Maximum memory used throughout the entire MP2-calculation: 740.1 MB


-------------------------------------------------------------------------------
                          DFT DISPERSION CORRECTION                            
                                                                               
                                DFTD4 V3.4.0                                   
-------------------------------------------------------------------------------
The REV-DSD-PBEP86-2021 functional is recognized
A user input s6-coefficient scaling factor has been recognized
A user input a1-coefficient scaling factor has been recognized
A user input s8-coefficient scaling factor has been recognized
A user input a2-coefficient scaling factor has been recognized
A user input s9-coefficient scaling factor has been recognized
Active option DFTDOPT                   ...         5   

-------------------------   ----------------
Dispersion correction           -0.024336722
-------------------------   ----------------


-------------------------   --------------------
FINAL SINGLE POINT ENERGY     -1161.641464971821
-------------------------   --------------------



           ************************************************************
           *        Program running with 10 parallel MPI-processes    *
           *              working on a common directory               *
           ************************************************************

------------------------------------------------------------------------------
                              ORCA PROPERTY CALCULATIONS
------------------------------------------------------------------------------

GBWName                                 ... oh-pg_cplx.gbw
Number of atoms                         ...     39
Number of basis functions               ...   1822
Max core memory                         ...   2000 MB

Electric properties:
Dipole moment                           ... YES
Quadrupole moment                       ...  NO
Static polarizability (Dipole/Dipole)   ...  NO
Static polarizability (Dipole/Quad.)    ...  NO
Static polarizability (Quad./Quad.)     ...  NO
Static polarizability (Velocity)        ...  NO

Atomic electric properties:
Dipole moment                           ...  NO
Quadrupole moment                       ...  NO
Static polarizability                   ...  NO

Choice of electric origin               ... Center of mass
Position of electric origin             ...    -4.854277     5.251409    -0.585002

General magnetic properties:
Magnetizability                         ...  NO

EPR properties:
g-Tensor (aka g-matrix)                 ...  NO
Zero-Field splitting spin-orbit         ...  NO
Zero-field splitting spin-spin          ...  NO
Hyperfine couplings                     ...  NO (   0 nuclei)
Quadrupole couplings                    ...  NO (   0 nuclei)
Contact density                         ...  NO (   0 nuclei)

NMR properties:
Chemical shifts                         ...  NO (   0 nuclei)
Spin-rotation constants                 ...  NO (   0 nuclei)
Spin-spin couplings                     ...  NO (   0 nuclei,    0 pairs)

Choice of magnetic origin               ... GIAO
Position of magnetic origin             ...     0.000000     0.000000     0.000000

Properties with geometric perturbations:
SCF Hessian                             ...  NO
IR spectrum                             ...  NO
VCD spectrum                            ...  NO
X-ray spectroscopy properties:
SCF XES/XAS/RIXS spectra                ...  NO


-------------
DIPOLE MOMENT
-------------

Method             : SCF
Type of density    : Electron Density
Multiplicity       :   1
Irrep              :   0
Energy             : -1159.7956275028632263 Eh
Relativity type    : 
Basis              : AO
                                X                 Y                 Z
Electronic contribution:     -5.980403658      -6.484418677      -8.030582469
Nuclear contribution   :      6.363171624       9.718226017       9.252187591
                        -----------------------------------------
Total Dipole Moment    :      0.382767966       3.233807340       1.221605122
                        -----------------------------------------
Magnitude (a.u.)       :      3.477979341
Magnitude (Debye)      :      8.840320934



--------------------
Rotational spectrum 
--------------------
 
Rotational constants in cm-1:             0.014994             0.008122             0.006260 
Rotational constants in MHz :           449.504601           243.489355           187.669818 

Dipole components along the rotational axes: 
x,y,z [a.u.] :    -1.580924    -3.094467    -0.145927 
x,y,z [Debye]:    -4.018390    -7.865509    -0.370917 

 

Dipole moment calculation done in   0.2 sec 

Maximum memory used throughout the entire PROP-calculation: 267.7 MB

--------------------------------
SUGGESTED CITATIONS FOR THIS RUN
--------------------------------

Below you find a list of papers that are relevant to this ORCA run
We neither can nor want to force you to cite these papers, but we appreciate if you do
You receive ORCA, which is the product of decades of hard work by many enthusiastic individuals, for free
The only thing we kindly ask in return is that you cite our papers,
We deeply appreciate it, if you show your appreciation for ORCA by not just citing the generic ORCA reference.

Please note that relegating all ORCA citations to the supporting information does *not* help us.
SI sections are not indexed - citations you put there will not count into any citation statistics
But we need these citations in order to attract the funding resources that allow us to do what we are doing

Therefore, if you are a happy ORCA user, please consider citing a few of the papers listed below in the main body of your paper

In addition to the list printed below, the program has created the file oh-pg_cplx.bibtex that contains the list in bibtex format
You can import this file easily into all common literature databanks and citation aid programs


List of essential papers. We consider these as the minimum necessary citations

  1. Neese,F.
     Software update: the ORCA program system, version 5.0
     WIRES Comput. Molec. Sci., 2022 12(1)e1606
     doi.org/10.1002/wcms.1606

List of papers to cite with high priority. The work reported in these papers was absolutely
necessary for this run to complete.
Our perspective: the developers of density functionals and basis sets usually get cited in chemistry papers
Good! But without the algorithms to do something with them, the functionals or basis sets would not do anything.
Hence, in our opinion, the algorithm design and method developments papers are equally worthy of getting cited

  1. Neese,F.
     An improvement of the resolution of the identity approximation for the formation of the Coulomb matrix
     J. Comp. Chem., 2003 24(14)1740-1747
     doi.org/10.1002/jcc.10318
  2. Neese,F.; Wennmohs,F.; Hansen,A.; Becker,U.
     Efficient, approximate and parallel Hartree-Fock and hybrid DFT calculations. A 'chain-of-spheres' algorithm for the Hartree-Fock exchange
     Chem. Phys., 2009 356(1-3)98-109
     doi.org/10.1016/j.chemphys.2008.10.036
  3. Kossmann,S.; Neese,F.
     Efficient Structure Optimization with Second-Order Many-Body Perturbation Theory: The RIJCOSX-MP2 Method
     J. Theo. Comp. Chem., 2010 6 2325-2338
     doi.org/10.1021/ct100199k
  4. Garcia-Rates,M.; Neese,F.
     Effect of the Solute Cavity on the Solvation Energy and its Derivatives within the Framework of the Gaussian Charge Scheme
     J. Comput. Chem., 2020 41 922-939
     doi.org/10.1002/jcc.26139
  5. Helmich-Paris,B.; de Souza,B.; Neese,F.; Izsák,R.
     An improved chain of spheres for exchange algorithm
     J. Chem. Phys., 2021 155 104109
     doi.org/doi: 10.1063/5.0058766.
  6. Neese,F.
     The SHARK Integral Generation and Digestion System
     J. Comp. Chem., 2022  1-16
     doi.org/10.1002/jcc.26942
  7. Caldeweyher,E.; Bannwarth,C.; Grimme,S.
     Extension of the D3 dispersion coefficient model
     J. Chem. Phys., 2017 147 034112
     doi.org/10.1063/1.4993215
  8. Caldeweyher,E.; Ehlert,S.; Hansen,A.; Neugebauer,H.; Spicher,S.; Bannwarth,C.; Grimme,S.
     A generally applicable atomic-charge dependent London dispersion correction
     J. Chem. Phys., 2019 150 154122
     doi.org/10.1063/1.5090222
  9. Caldeweyher,E.; Mewes,J.; Ehlert,S.; Grimme,S.
     Extension and evaluation of the D4 London-dispersion model for periodic systems
     Phys. Chem. Chem. Phys., 2020 22(16)8499-8512
     doi.org/10.1039/D0CP00502A
 10. Wittmann,L.; Gordiy,I.; Friede,M.; Helmich-Paris,B.; Grimme,S.; Hansen,A.; Bursch,M.
     Extension of the D3 and D4 London Dispersion Corrections to the full Actinides Series
     Phys. Chem. Chem. Phys., 2024 26(32)21379-21394
     doi.org/https://doi.org/10.1039/D4CP01514B 

List of suggested additional citations. These are papers that are important in the 'surrounding' of 
of this run, or papers that preceded the highly important papers. If you like your results we are grateful for a citation.

  1. Izsak,R.; Neese,F.
     An overlap fitted chain of spheres exchange method
     J. Chem. Phys., 2011 135 144105
     doi.org/10.1063/1.3646921
  2. Izsak,R.; Hansen,A.; Neese,F.
     The resolution of identity and chain of spheres approximations for the LPNO-CCSD singles Fock term
     Molec. Phys., 2012 110 2413-2417
     doi.org/10.1080/00268976.2012.687466
  3. Neese,F.
     The ORCA program system
     WIRES Comput. Molec. Sci., 2012 2(1)73-78
     doi.org/10.1002/wcms.81
  4. Izsak,R.; Neese,F.; Klopper,W.
     Robust fitting techniques in the chain of spheres approximation to the Fock exchange: The role of the complementary space
     J. Chem. Phys., 2013 139 
     doi.org/10.1063/1.4819264
  5. Neese,F.
     Software update: the ORCA program system, version 4.0
     WIRES Comput. Molec. Sci., 2018 8(1)1-6
     doi.org/10.1002/wcms.1327
  6. Neese,F.; Wennmohs,F.; Becker,U.; Riplinger,C.
     The ORCA quantum chemistry program package
     J. Chem. Phys., 2020 152 Art. No. L224108
     doi.org/10.1063/5.0004608

List of optional additional citations

  1. Neese,F.
     Approximate second-order SCF convergence for spin unrestricted wavefunctions
     Chem. Phys. Lett., 2000 325(1-3)93-98
     doi.org/10.1016/s0009-2614(00)00662-x

Timings for individual modules:

Sum of individual times          ...      881.494 sec (=  14.692 min)
Startup calculation              ...       11.338 sec (=   0.189 min)   1.3 %
SCF iterations                   ...      567.428 sec (=   9.457 min)  64.4 %
Property calculations            ...        1.552 sec (=   0.026 min)   0.2 %
MP2 module                       ...      301.177 sec (=   5.020 min)  34.2 %
                             ****ORCA TERMINATED NORMALLY****
TOTAL RUN TIME: 0 days 0 hours 14 minutes 42 seconds 287 msec
