
                                 *****************
                                 * O   R   C   A *
                                 *****************

                                            #,                                       
                                            ###                                      
                                            ####                                     
                                            #####                                    
                                            ######                                   
                                           ########,                                 
                                     ,,################,,,,,                         
                               ,,#################################,,                 
                          ,,##########################################,,             
                       ,#########################################, ''#####,          
                    ,#############################################,,   '####,        
                  ,##################################################,,,,####,       
                ,###########''''           ''''###############################       
              ,#####''   ,,,,##########,,,,          '''####'''          '####       
            ,##' ,,,,###########################,,,                        '##       
           ' ,,###''''                  '''############,,,                           
         ,,##''                                '''############,,,,        ,,,,,,###''
      ,#''                                            '''#######################'''  
     '                                                          ''''####''''         
             ,#######,   #######,   ,#######,      ##                                
            ,#'     '#,  ##    ##  ,#'     '#,    #''#        ,####,   ,####,        
            ##       ##  ##   ,#'  ##            #'  '#       #'       #'  '#        
            ##       ##  #######   ##           ,######,      #####,   #    #        
            '#,     ,#'  ##    ##  '#,     ,#' ,#      #,     #,   #   #,  ,#        
             '#######'   ##     ##  '#######'  #'      '#     '####' # '####'        



                #########################################################
                #                        -***-                          #
                #          Department of theory and spectroscopy        #
                #                                                       #
                #                      Frank Neese                      #
                #                                                       #
                #     Directorship, Architecture, Infrastructure        #
                #                    SHARK, DRIVERS                     #
                #        Core code/Algorithms in most modules           #
                #                                                       #
                #        Max Planck Institute fuer Kohlenforschung      #
                #                Kaiser Wilhelm Platz 1                 #
                #                 D-45470 Muelheim/Ruhr                 #
                #                      Germany                          #
                #                                                       #
                #                  All rights reserved                  #
                #                        -***-                          #
                #########################################################


                         Program Version 6.0.1  -  RELEASE   -


 With contributions from (in alphabetic order):
[Max-Planck-Institut fuer Kohlenforschung]                               
  Daniel Aravena         : Magnetic Suceptibility                        
  Michael Atanasov       : Ab Initio Ligand Field Theory (pilot matlab implementation)
  Alexander A. Auer      : GIAO ZORA, VPT2 properties, NMR spectrum      
  Ute Becker             : All parallelization in ORCA, NUMFREQ, NUMCALC 
  Giovanni Bistoni       : ED, misc. LED, open-shell LED, HFLD           
  Martin Brehm           : Molecular dynamics                            
  Dmytro Bykov           : pre 5.0 version of the SCF Hessian            
  Marcos Casanova-Páez   : Triplet and SCS-CIS(D). UHF-(DLPNO)-IP/EA/STEOM-CCSD. UHF-CVS-IP/STEOM-CCSD   
  Vijay G. Chilkuri      : MRCI spin determinant printing, contributions to CSF-ICE 
  Pauline Colinet        : FMM embedding                                 
  Dipayan Datta          : RHF DLPNO-CCSD density                        
  Achintya Kumar Dutta   : EOM-CC, STEOM-CC                              
  Nicolas Foglia         : Exact transition moments, OPA infrastructure, MCD improvements    
  Dmitry Ganyushin       : Spin-Orbit,Spin-Spin,Magnetic field MRCI      
  Miquel Garcia-Rates    : C-PCM and meta-GGA Hessian, CCSD/C-PCM, Gaussian charge scheme 
  Tiago L. C. Gouveia    : GS-ROHF, GS-ROCIS                             
  Yang Guo               : DLPNO-NEVPT2, F12-NEVPT2, CIM, IAO-localization        
  Andreas Hansen         : Spin unrestricted coupled pair/coupled cluster methods 
  Ingolf Harden          : AUTO-CI MPn and infrastructure                
  Benjamin Helmich-Paris : MC-RPA, TRAH-(SCF,CASSCF), AVAS, COSX integrals, SCF dyn. polar. 
  Lee Huntington         : MR-EOM, pCC                                   
  Robert Izsak           : Overlap fitted RIJCOSX, COSX-SCS-MP3, EOM     
  Riya Kayal             : Wick's Theorem for AUTO-CI, AUTO-CI UHF-CCSDT 
  Emily Kempfer          : AUTO-CI, RHF CISDT and CCSDT                  
  Christian Kollmar      : KDIIS, OOCD, Brueckner-CCSD(T), CCSD density, CASPT2, CASPT2-K, improved NEVPT2 
  Axel Koslowski         : Symmetry handling                             
  Simone Kossmann        : meta-GGA functionals, TD-DFT gradient, OOMP2, (MP2 Hessian; deprecated post 5.0) 
  Lucas Lang             : DCDCAS                                        
  Marvin Lechner         : AUTO-CI (C++ implementation), FIC-MRCC        
  Spencer Leger          : CASSCF response                               
  Dagmar Lenk            : GEPOL surface, SMD, ORCA-2-JSON               
  Dimitrios Liakos       : Extrapolation schemes; Compound Job, initial MDCI parallelization 
  Dimitrios Manganas     : Further ROCIS development; embedding schemes. LFT, Crystal Embedding 
  Dimitrios Pantazis     : SARC Basis sets                               
  Anastasios Papadopoulos: AUTO-CI, single reference methods and gradients 
  Taras Petrenko         : pre 6.0 DFT Hessian and TD-DFT gradient, (ASA, deprecated), ECA, 1-Electron XAS/XES, NRVS 
  Peter Pinski           : DLPNO-MP2, DLPNO-MP2 Gradient                 
  Christoph Reimann      : Effective Core Potentials                     
  Marius Retegan         : Local ZFS, SOC                                
  Christoph Riplinger    : Optimizer, TS searches, QM/MM, DLPNO-CCSD(T), (RO)-DLPNO pert. Triples 
  Michael Roemelt        : Original ROCIS implementation                 
  Masaaki Saitow         : Open-shell DLPNO-CCSD energy and density      
  Barbara Sandhoefer     : DKH picture change effects                    
  Kantharuban Sivalingam : CASSCF convergence/infrastructure, NEVPT2 and variants, FIC-MRCI 
  Bernardo de Souza      : ESD, SOC TD-DFT                               
  Georgi L. Stoychev     : AutoAux, RI-MP2 NMR, DLPNO-MP2 response, X2C  
  Van Anh Tran           : RI-MP2 g-tensors                              
  Willem Van den Heuvel  : Paramagnetic NMR                              
  Zikuan Wang            : NOTCH, Electric field optimization            
  Frank Wennmohs         : Technical directorship and infrastructure     
  Hang Xu                : AUTO-CI-Response properties                   
                                                                         
[FACCTs GmbH]                                                            
  Markus Bursch, Miquel Garcia-Rates, Christoph Riplinger, Bernardo de Souza, Georgi L. Stoychev 
                                                                 
  APM, Basis sets (HGBS, AHGBS, def-TZVP (Ac-Lr), def2-XVPD (La-Lu)), CI-OPT, improved COSX, DLPNO-Multilevel,           
  DOCKER, DRACO, updates on ESD, GOAT, IRC, LR-CPCM, MBIS, meta-GGA TD-DFT gradient, ML-optimized integration grids, 
  MM, NACMEs, nearIR, NEB, NEB-TS, NL-DFT gradient (VV10), 2- and 3-layer-ONIOM, interface openCOSMO-RS, QMMM,   
  Crystal-QMMM, SF, symmetry and pop. for TD-DFT, r2SCAN hybrids, SOLVATOR                                   
                                                                         
[Other institutions]                                                     
  V. Asgeirsson          : NEB                                           
  Christoph Bannwarth    : sTDA-DFT, sTD-DFT, PBEh-3c, B97-3c, D3        
  Sebastian Ehlert       : rSCAN, r2SCAN, r2SCAN-3c, D4, dhf basis sets  
  Marvin Friede          : D4 for Fr, Ra, Ac-Lr                          
  Lars Goerigk           : TD-DFT with DH, B97 family of functionals     
  Stefan Grimme          : VdW corrections, initial TS optimization, DFT functionals, gCP, sTDA/sTD-DF 
  Waldemar Hujo          : DFT-NL                                        
  H. Jonsson             : NEB                                           
  Holger Kruse           : gCP                                           
  Marcel Mueller         : wB97X-3c, vDZP basis set                      
  Hagen Neugebauer       : wr2SCAN                                       
  Tobias Risthaus        : range-separated hybrid DFT                    
  Lukas Wittmann         : regularized MP2, r2SCAN double-hybrids, wr2SCAN        
                                                                         
We gratefully acknowledge several colleagues who have allowed us to      
interface, adapt or use parts of their codes:                            
  Ed Valeev, F. Pavosevic, A. Kumar             : LibInt (2-el integral package), F12 methods 
  Garnet Chan, S. Sharma, J. Yang, R. Olivares  : DMRG                   
  Ulf Ekstrom                                   : XCFun DFT Library      
  Mihaly Kallay                                 : mrcc  (arbitrary order and MRCC methods)
  Frank Weinhold                                : gennbo (NPA and NBO analysis)           
  Simon Mueller                                 : openCOSMO-RS                            
  Christopher J. Cramer and Donald G. Truhlar   : smd solvation model                     
  S Lehtola, MJT Oliveira, MAL Marques          : LibXC Library                           
  Liviu Ungur et al                             : ANISO software                          


 Your calculation uses the libint2 library for the computation of 2-el integrals
 For citations please refer to: http://libint.valeyev.net

 Your ORCA version has been built with support for libXC version: 6.2.2
 For citations please refer to: https://libxc.gitlab.io

 This ORCA versions uses:
   CBLAS   interface :  Fast vector & matrix operations
   LAPACKE interface :  Fast linear algebra routines
   SCALAPACK package :  Parallel linear algebra routines
   Shared memory     :  Shared parallel matrices
   BLAS/LAPACK       :  OpenBLAS 0.3.27  USE64BITINT DYNAMIC_ARCH NO_AFFINITY Haswell SINGLE_THREADED
        Core in use  :  Haswell
   Copyright (c) 2011-2014, The OpenBLAS Project


NOTE: MaxCore=2000 MB was set to SCF,MP2,MDCI,CIPSI,MRCI and CIS
      => If you want to overwrite this, your respective input block should be placed after the MaxCore statement
Your calculation utilizes the atom-pairwise dispersion correction
based on EEQ partial charges (D4)


================================================================================

----- Orbital basis set information -----
Your calculation utilizes the basis: def2-QZVPPD
   F. Weigend and R. Ahlrichs, Phys. Chem. Chem. Phys. 7, 3297 (2005).
   D. Rappoport and F. Furche, J. Chem. Phys. 133, 134105 (2010)
   D. Rappoport, J. Chem. Phys. 155, 124102 (2021).

----- AuxJ basis set information -----
Your calculation utilizes the auxiliary basis: def2/J
   F. Weigend, Phys. Chem. Chem. Phys. 8, 1057 (2006).

----- AuxC basis set information -----
Your calculation utilizes the auxiliary basis: def2-QZVPPD/C
   A. Hellweg, C. Hattig, S. Hofener and W. Klopper, Theor. Chem. Acc. 117, 587 (2007).
  A. Hellweg and D. Rappoport; Phys. Chem. Chem. Phys. 17, 1010 (2015).

================================================================================
                                        WARNINGS
                       Please study these warnings very carefully!
================================================================================


WARNING: No MP2 level density has been requested!
         To calculate MP2 level properties use
         %mp2 Density relaxed end
         or
         %mp2 Density unrelaxed end
         Otherwise for double-hybrid DFT only the energy is correct!

WARNING: The frozen-core approximation is turned on by default for 
         the MP2 part of double-hybrid DFT.

================================================================================
                                       INPUT FILE
================================================================================
NAME = pg1_frag.inp
|  1> # ------------------------------------
|  2> # OH_POPG (O2 & H3 ghosted); ion pair-pi
|  3> # ------------------------------------
|  4> ! SP revDSD-PBEP86-D4/2021 def2-QZVPPD RIJCOSX def2/J TightSCF CPCM
|  5> %basis
|  6>   basis   "def2-QZVPPD"
|  7>   aux     "def2/J"           # RI-J (for SCF/RIJCOSX)
|  8>   auxC    "def2-QZVPPD/C"    # required for RI-MP2 (AuxC)
|  9> end
| 10> %pal
| 11>     nprocs 10
| 12> end
| 13> %MaxCore 2000
| 14> %cpcm 
| 15>    epsilon 3 
| 16> end
| 17> *xyz -1 1
| 18> # POPG1
| 19> C     -5.46300      4.58600      -2.76900
| 20> C     -2.52600      1.26600      -3.33600
| 21> O     -4.15900      4.10300      -2.98300
| 22> O     -1.89600      3.82300      -1.92000
| 23> O     -4.07900      3.38500      -0.51600
| 24> O     -3.36900      1.77200      -2.32900
| 25> P     -3.31700      3.30800      -1.80300
| 26> H     -2.75600      0.21400      -3.50900
| 27> H     -2.68200      1.82800      -4.25700
| 28> H     -1.48700      1.36400      -3.02300
| 29> H     -5.82400      5.07300      -3.67500
| 30> H     -5.45500      5.30400      -1.94900
| 31> H     -6.12200      3.75500      -2.51600
| 32> # Orn2 ghosted
| 33> C:    -1.78200      4.40500       1.95200
| 34> C:    -1.94400      5.91200       1.79200
| 35> H:    -0.99400      6.43000       2.01400
| 36> H:    -2.65800      6.27300       2.54800
| 37> C:    -2.48600      6.40500       0.46000
| 38> H:    -2.66700      7.48800       0.50800
| 39> H:    -3.43700      5.90700       0.22100
| 40> N:    -1.57700      6.15200      -0.67800
| 41> H:    -1.84000      6.72600      -1.49600
| 42> H:    -0.58000      6.27900      -0.44800
| 43> H:    -1.66800      5.15900      -1.05700
| 44> H:    -2.72800      3.91200       1.72900
| 45> H:    -1.48800      4.17900       2.97700
| 46> H:    -1.01500      4.04700       1.26700
| 47> # His3 ghosted
| 48> C:     0.51500     -0.46800       2.19100
| 49> N:    -1.32900      0.74700       0.92500
| 50> N:    -3.13300     -0.11800       1.83400
| 51> H:    -4.11300     -0.28500       2.02500
| 52> C:    -0.94700     -0.20000       1.85200
| 53> C:    -2.64600      0.77400       0.94500
| 54> H:    -3.28600      1.43400       0.35400
| 55> C:    -2.06800     -0.75000       2.42400
| 56> H:    -2.19200     -1.51600       3.18700
| 57> H:     0.57600     -1.25200       2.94500
| 58> H:     0.97100      0.44400       2.57700
| 59> H:     1.04300     -0.78600       1.29200
| 60> *
| 61> 
| 62> 
| 63> 
| 64>                          ****END OF INPUT****
================================================================================

                       ****************************
                       * Single Point Calculation *
                       ****************************

---------------------------------
CARTESIAN COORDINATES (ANGSTROEM)
---------------------------------
  C     -5.463000    4.586000   -2.769000
  C     -2.526000    1.266000   -3.336000
  O     -4.159000    4.103000   -2.983000
  O     -1.896000    3.823000   -1.920000
  O     -4.079000    3.385000   -0.516000
  O     -3.369000    1.772000   -2.329000
  P     -3.317000    3.308000   -1.803000
  H     -2.756000    0.214000   -3.509000
  H     -2.682000    1.828000   -4.257000
  H     -1.487000    1.364000   -3.023000
  H     -5.824000    5.073000   -3.675000
  H     -5.455000    5.304000   -1.949000
  H     -6.122000    3.755000   -2.516000
  C     -1.782000    4.405000    1.952000
  C     -1.944000    5.912000    1.792000
  H     -0.994000    6.430000    2.014000
  H     -2.658000    6.273000    2.548000
  C     -2.486000    6.405000    0.460000
  H     -2.667000    7.488000    0.508000
  H     -3.437000    5.907000    0.221000
  N     -1.577000    6.152000   -0.678000
  H     -1.840000    6.726000   -1.496000
  H     -0.580000    6.279000   -0.448000
  H     -1.668000    5.159000   -1.057000
  H     -2.728000    3.912000    1.729000
  H     -1.488000    4.179000    2.977000
  H     -1.015000    4.047000    1.267000
  C      0.515000   -0.468000    2.191000
  N     -1.329000    0.747000    0.925000
  N     -3.133000   -0.118000    1.834000
  H     -4.113000   -0.285000    2.025000
  C     -0.947000   -0.200000    1.852000
  C     -2.646000    0.774000    0.945000
  H     -3.286000    1.434000    0.354000
  C     -2.068000   -0.750000    2.424000
  H     -2.192000   -1.516000    3.187000
  H      0.576000   -1.252000    2.945000
  H      0.971000    0.444000    2.577000
  H      1.043000   -0.786000    1.292000

----------------------------
CARTESIAN COORDINATES (A.U.)
----------------------------
  NO LB      ZA    FRAG     MASS         X           Y           Z
   0 C     6.0000    0    12.011  -10.323574    8.666284   -5.232652
   1 C     6.0000    0    12.011   -4.773448    2.392393   -6.304126
   2 O     8.0000    0    15.999   -7.859371    7.753546   -5.637053
   3 O     8.0000    0    15.999   -3.582921    7.224423   -3.628274
   4 O     8.0000    0    15.999   -7.708193    6.396723   -0.975099
   5 O     8.0000    0    15.999   -6.366487    3.348595   -4.401172
   6 P    15.0000    0    30.974   -6.268222    6.251214   -3.407176
   7 H     1.0000    0     1.008   -5.208085    0.404401   -6.631049
   8 H     1.0000    0     1.008   -5.068245    3.454419   -8.044564
   9 H     1.0000    0     1.008   -2.810023    2.577586   -5.712642
  10 H     1.0000    0     1.008  -11.005765    9.586581   -6.944744
  11 H     1.0000    0     1.008  -10.308456   10.023107   -3.683076
  12 H     1.0000    0     1.008  -11.568903    7.095922   -4.754551
  13 C     0.0000    0     0.000   -3.367492    8.324244    3.688745
  14 C     0.0000    0     0.000   -3.673628   11.172061    3.386389
  15 H     0.0000    0     0.000   -1.878388   12.150939    3.805908
  16 H     0.0000    0     0.000   -5.022892   11.854252    4.815022
  17 C     0.0000    0     0.000   -4.697859   12.103696    0.869274
  18 H     0.0000    0     0.000   -5.039900   14.150269    0.959981
  19 H     0.0000    0     0.000   -6.494989   11.162612    0.417629
  20 N     0.0000    0     0.000   -2.980098   11.625595   -1.281234
  21 H     0.0000    0     0.000   -3.477096   12.710298   -2.827030
  22 H     0.0000    0     0.000   -1.096041   11.865590   -0.846597
  23 H     0.0000    0     0.000   -3.152063    9.749097   -1.997441
  24 H     0.0000    0     0.000   -5.155173    7.392609    3.267336
  25 H     0.0000    0     0.000   -2.811912    7.897166    5.625715
  26 H     0.0000    0     0.000   -1.918072    7.647722    2.394283
  27 C     0.0000    0     0.000    0.973209   -0.884392    4.140390
  28 N     0.0000    0     0.000   -2.511446    1.411625    1.747997
  29 N     0.0000    0     0.000   -5.920512   -0.222988    3.465758
  30 H     0.0000    0     0.000   -7.772444   -0.538572    3.826695
  31 C     0.0000    0     0.000   -1.789571   -0.377945    3.499773
  32 C     0.0000    0     0.000   -5.000215    1.462648    1.785791
  33 H     0.0000    0     0.000   -6.209640    2.709867    0.668963
  34 C     0.0000    0     0.000   -3.907954   -1.417295    4.580696
  35 H     0.0000    0     0.000   -4.142280   -2.864825    6.022557
  36 H     0.0000    0     0.000    1.088482   -2.365937    5.565243
  37 H     0.0000    0     0.000    1.834924    0.839038    4.869824
  38 H     0.0000    0     0.000    1.970984   -1.485325    2.441526

--------------------------------
INTERNAL COORDINATES (ANGSTROEM)
--------------------------------
 C      0   0   0     0.000000000000     0.00000000     0.00000000
 C      1   0   0     4.468764706270     0.00000000     0.00000000
 O      1   2   0     1.406947404845    27.93442364     0.00000000
 O      3   1   2     2.515857309149   143.86389600   250.26777733
 O      3   1   2     2.570605570678    88.78286457   285.47474518
 O      2   1   3     1.407385519323    41.27413371   113.53939510
 P      5   3   1     1.497645485420    37.39016720   173.37779778
 H      2   1   3     1.090657141360   126.73610183   190.91255864
 H      2   1   3     1.090147237762    68.29313345   289.55192734
 H      2   1   3     1.089538434384   121.56521411    29.67856259
 H      1   2  10     1.090103664795   116.36575573   111.67056297
 H      1   2  10     1.089948622642   125.45320138   327.59846935
 H      1   2  10     1.090344440991    81.97784053   219.46982850
 C      5   3   1     3.522447018764   127.72149624   238.65237222
 C     14   5   3     1.524103999076    98.24778941    53.28412360
 H     15  14   5     1.104584989940   110.55927453   211.85328465
 H     15  14   5     1.100751107199   108.73085478    96.56305891
 C     15  14   5     1.520209525033   116.77814133   337.64522316
 H     18  15  14     1.099069606531   109.87714869   173.42932309
 H     18  15  14     1.099784524350   110.60113217    53.97110001
 N     18  15  14     1.478287522778   113.56388907   294.07981248
 H     21  18  15     1.033329086013   110.96655080   196.31745090
 H     21  18  15     1.031037341710   113.69036924   321.94059116
 H     21  18  15     1.066757235738   112.35575593    82.39294774
 H     14   5   3     1.089813745555    32.81626544   166.68176755
 H     14   5   3     1.090016972345   140.77822863   188.41835398
 H     14   5   3     1.088888424036    85.60477640   304.18159820
 C     27  14   5     4.855914023127   114.07475183   263.64222377
 N     28  27  14     2.545450254867    39.94121878    85.93291805
 N     29  28  27     2.197480830406   101.60064765   237.24879045
 H     30  29  28     1.012309241289   159.67268153   178.42936675
 C     29  28  27     1.379152638398    30.37789355   233.70619163
 C     29  28  27     1.317428555938   136.58761784   239.21664079
 H     33  29  28     1.092923144599   126.12594433   175.17636150
 C     30  29  28     1.371768566486    73.85403931   357.94796891
 H     35  30  29     1.088255944160   122.50556025   179.82737804
 H     28  27  14     1.089446189584   144.92946376   340.07924613
 H     28  27  14     1.090264188167    54.64660511   267.46759262
 H     28  27  14     1.090004128433   105.48259196   164.30502798

---------------------------
INTERNAL COORDINATES (A.U.)
---------------------------
 C      0   0   0     0.000000000000     0.00000000     0.00000000
 C      1   0   0     8.444741451782     0.00000000     0.00000000
 O      1   2   0     2.658745279988    27.93442364     0.00000000
 O      3   1   2     4.754281306316   143.86389600   250.26777733
 O      3   1   2     4.857740526913    88.78286457   285.47474518
 O      2   1   3     2.659573196367    41.27413371   113.53939510
 P      5   3   1     2.830139813148    37.39016720   173.37779778
 H      2   1   3     2.061043303176   126.73610183   190.91255864
 H      2   1   3     2.060079725021    68.29313345   289.55192734
 H      2   1   3     2.058929253367   121.56521411    29.67856259
 H      1   2  10     2.059997384047   116.36575573   111.67056297
 H      1   2  10     2.059704396839   125.45320138   327.59846935
 H      1   2  10     2.060452385116    81.97784053   219.46982850
 C      5   3   1     6.656460186711   127.72149624   238.65237222
 C     14   5   3     2.880139157868    98.24778941    53.28412360
 H     15  14   5     2.087363122626   110.55927453   211.85328465
 H     15  14   5     2.080118134217   108.73085478    96.56305891
 C     15  14   5     2.872779668490   116.77814133   337.64522316
 H     18  15  14     2.076940558460   109.87714869   173.42932309
 H     18  15  14     2.078291557347   110.60113217    53.97110001
 N     18  15  14     2.793558565243   113.56388907   294.07981248
 H     21  18  15     1.952708978779   110.96655080   196.31745090
 H     21  18  15     1.948378209678   113.69036924   321.94059116
 H     21  18  15     2.015879026924   112.35575593    82.39294774
 H     14   5   3     2.059449516081    32.81626544   166.68176755
 H     14   5   3     2.059833559058   140.77822863   188.41835398
 H     14   5   3     2.057700911825    85.60477640   304.18159820
 C     27  14   5     9.176347633577   114.07475183   263.64222377
 N     28  27  14     4.810203869218    39.94121878    85.93291805
 N     29  28  27     4.152636954008   101.60064765   237.24879045
 H     30  29  28     1.912987228875   159.67268153   178.42936675
 C     29  28  27     2.606220783447    30.37789355   233.70619163
 C     29  28  27     2.489579171730   136.58761784   239.21664079
 H     33  29  28     2.065325428716   126.12594433   175.17636150
 C     30  29  28     2.592266909781    73.85403931   357.94796891
 H     35  30  29     2.056505698075   122.50556025   179.82737804
 H     28  27  14     2.058754935959   144.92946376   340.07924613
 H     28  27  14     2.060300729258    54.64660511   267.46759262
 H     28  27  14     2.059809287581   105.48259196   164.30502798

---------------------
BASIS SET INFORMATION
---------------------
There are 5 groups of distinct atoms

 Group   1 Type C   : 16s8p4d2f1g contracted to 8s4p4d2f1g pattern {82111111/5111/1111/11/1}
 Group   2 Type O   : 16s9p4d2f1g contracted to 8s5p4d2f1g pattern {82111111/51111/1111/11/1}
 Group   3 Type P   : 21s14p5d2f1g contracted to 10s6p5d2f1g pattern {10311111111/821111/11111/11/1}
 Group   4 Type H   : 7s4p2d1f contracted to 4s4p2d1f pattern {4111/1111/11/1}
 Group   5 Type N   : 16s8p4d2f1g contracted to 8s4p4d2f1g pattern {82111111/5111/1111/11/1}

Atom   0C    basis set group =>   1
Atom   1C    basis set group =>   1
Atom   2O    basis set group =>   2
Atom   3O    basis set group =>   2
Atom   4O    basis set group =>   2
Atom   5O    basis set group =>   2
Atom   6P    basis set group =>   3
Atom   7H    basis set group =>   4
Atom   8H    basis set group =>   4
Atom   9H    basis set group =>   4
Atom  10H    basis set group =>   4
Atom  11H    basis set group =>   4
Atom  12H    basis set group =>   4
Atom  13C    basis set group =>   1
Atom  14C    basis set group =>   1
Atom  15H    basis set group =>   4
Atom  16H    basis set group =>   4
Atom  17C    basis set group =>   1
Atom  18H    basis set group =>   4
Atom  19H    basis set group =>   4
Atom  20N    basis set group =>   5
Atom  21H    basis set group =>   4
Atom  22H    basis set group =>   4
Atom  23H    basis set group =>   4
Atom  24H    basis set group =>   4
Atom  25H    basis set group =>   4
Atom  26H    basis set group =>   4
Atom  27C    basis set group =>   1
Atom  28N    basis set group =>   5
Atom  29N    basis set group =>   5
Atom  30H    basis set group =>   4
Atom  31C    basis set group =>   1
Atom  32C    basis set group =>   1
Atom  33H    basis set group =>   4
Atom  34C    basis set group =>   1
Atom  35H    basis set group =>   4
Atom  36H    basis set group =>   4
Atom  37H    basis set group =>   4
Atom  38H    basis set group =>   4
---------------------------------
AUXILIARY/J BASIS SET INFORMATION
---------------------------------
There are 5 groups of distinct atoms

 Group   1 Type C   : 12s5p4d2f1g contracted to 6s4p3d1f1g pattern {711111/2111/211/2/1}
 Group   2 Type O   : 12s5p4d2f1g contracted to 6s4p3d1f1g pattern {711111/2111/211/2/1}
 Group   3 Type P   : 14s5p5d2f1g contracted to 8s4p3d1f1g pattern {71111111/2111/311/2/1}
 Group   4 Type H   : 5s2p1d contracted to 3s1p1d pattern {311/2/1}
 Group   5 Type N   : 12s5p4d2f1g contracted to 6s4p3d1f1g pattern {711111/2111/211/2/1}

Atom   0C    basis set group =>   1
Atom   1C    basis set group =>   1
Atom   2O    basis set group =>   2
Atom   3O    basis set group =>   2
Atom   4O    basis set group =>   2
Atom   5O    basis set group =>   2
Atom   6P    basis set group =>   3
Atom   7H    basis set group =>   4
Atom   8H    basis set group =>   4
Atom   9H    basis set group =>   4
Atom  10H    basis set group =>   4
Atom  11H    basis set group =>   4
Atom  12H    basis set group =>   4
Atom  13C    basis set group =>   1
Atom  14C    basis set group =>   1
Atom  15H    basis set group =>   4
Atom  16H    basis set group =>   4
Atom  17C    basis set group =>   1
Atom  18H    basis set group =>   4
Atom  19H    basis set group =>   4
Atom  20N    basis set group =>   5
Atom  21H    basis set group =>   4
Atom  22H    basis set group =>   4
Atom  23H    basis set group =>   4
Atom  24H    basis set group =>   4
Atom  25H    basis set group =>   4
Atom  26H    basis set group =>   4
Atom  27C    basis set group =>   1
Atom  28N    basis set group =>   5
Atom  29N    basis set group =>   5
Atom  30H    basis set group =>   4
Atom  31C    basis set group =>   1
Atom  32C    basis set group =>   1
Atom  33H    basis set group =>   4
Atom  34C    basis set group =>   1
Atom  35H    basis set group =>   4
Atom  36H    basis set group =>   4
Atom  37H    basis set group =>   4
Atom  38H    basis set group =>   4
---------------------------------
AUXILIARY/C BASIS SET INFORMATION
---------------------------------
There are 5 groups of distinct atoms

 Group   1 Type C   : 10s9p8d6f3g1h contracted to 10s9p8d6f3g1h pattern {1111111111/111111111/11111111/111111/111/1}
 Group   2 Type O   : 10s9p8d6f3g1h contracted to 10s9p8d6f3g1h pattern {1111111111/111111111/11111111/111111/111/1}
 Group   3 Type P   : 13s11p10d7f3g1h contracted to 13s11p10d7f3g1h pattern {1111111111111/11111111111/1111111111/1111111/111/1}
 Group   4 Type H   : 7s5p4d2f1g contracted to 7s5p4d2f1g pattern {1111111/11111/1111/11/1}
 Group   5 Type N   : 10s9p8d6f3g1h contracted to 10s9p8d6f3g1h pattern {1111111111/111111111/11111111/111111/111/1}

Atom   0C    basis set group =>   1
Atom   1C    basis set group =>   1
Atom   2O    basis set group =>   2
Atom   3O    basis set group =>   2
Atom   4O    basis set group =>   2
Atom   5O    basis set group =>   2
Atom   6P    basis set group =>   3
Atom   7H    basis set group =>   4
Atom   8H    basis set group =>   4
Atom   9H    basis set group =>   4
Atom  10H    basis set group =>   4
Atom  11H    basis set group =>   4
Atom  12H    basis set group =>   4
Atom  13C    basis set group =>   1
Atom  14C    basis set group =>   1
Atom  15H    basis set group =>   4
Atom  16H    basis set group =>   4
Atom  17C    basis set group =>   1
Atom  18H    basis set group =>   4
Atom  19H    basis set group =>   4
Atom  20N    basis set group =>   5
Atom  21H    basis set group =>   4
Atom  22H    basis set group =>   4
Atom  23H    basis set group =>   4
Atom  24H    basis set group =>   4
Atom  25H    basis set group =>   4
Atom  26H    basis set group =>   4
Atom  27C    basis set group =>   1
Atom  28N    basis set group =>   5
Atom  29N    basis set group =>   5
Atom  30H    basis set group =>   4
Atom  31C    basis set group =>   1
Atom  32C    basis set group =>   1
Atom  33H    basis set group =>   4
Atom  34C    basis set group =>   1
Atom  35H    basis set group =>   4
Atom  36H    basis set group =>   4
Atom  37H    basis set group =>   4
Atom  38H    basis set group =>   4


           ************************************************************
           *        Program running with 10 parallel MPI-processes    *
           *              working on a common directory               *
           ************************************************************
------------------------------------------------------------------------------
                             ORCA STARTUP CALCULATIONS
                           -- RI-GTO INTEGRALS CHOSEN --
------------------------------------------------------------------------------
------------------------------------------------------------------------------
                   ___                                                        
                  /   \      - P O W E R E D   B Y -                         
                 /     \                                                     
                 |  |  |   _    _      __       _____    __    __             
                 |  |  |  | |  | |    /  \     |  _  \  |  |  /  |          
                  \  \/   | |  | |   /    \    | | | |  |  | /  /          
                 / \  \   | |__| |  /  /\  \   | |_| |  |  |/  /          
                |  |  |   |  __  | /  /__\  \  |    /   |      \           
                |  |  |   | |  | | |   __   |  |    \   |  |\   \          
                \     /   | |  | | |  |  |  |  | |\  \  |  | \   \       
                 \___/    |_|  |_| |__|  |__|  |_| \__\ |__|  \__/        
                                                                              
                      - O R C A' S   B I G   F R I E N D -                    
                                      &                                       
                       - I N T E G R A L  F E E D E R -                       
                                                                              
 v1 FN, 2020, v2 2021, v3 2022-2024                                           
------------------------------------------------------------------------------


----------------------
SHARK INTEGRAL PACKAGE
----------------------

Number of atoms                             ...     39
Number of basis functions                   ...   1822
Number of shells                            ...    574
Maximum angular momentum                    ...      4
Integral batch strategy                     ... SHARK/LIBINT Hybrid
RI-J (if used) integral strategy            ... SPLIT-RIJ (Revised 2003 algorithm where possible)
Printlevel                                  ...      1
Contraction scheme used                     ... SEGMENTED contraction
Prescreening option                         ... SCHWARTZ
   Thresh                                   ... 2.500e-11
   Tcut                                     ... 2.500e-12
   Tpresel                                  ... 2.500e-12 
Coulomb Range Separation                    ... NOT USED
Exchange Range Separation                   ... NOT USED
Multipole approximations                    ... NOT USED
Finite Nucleus Model                        ... NOT USED
CABS basis                                  ... NOT available
Auxiliary Coulomb fitting basis             ... AVAILABLE
   # of basis functions in Aux-J            ...   1077
   # of shells in Aux-J                     ...    367
   Maximum angular momentum in Aux-J        ...      4
Auxiliary J/K fitting basis                 ... NOT available
Auxiliary Correlation fitting basis         ... AVAILABLE
   # of basis functions in Aux-C            ...   4125
   # of shells in Aux-C                     ...   1055
   Maximum angular momentum in Aux-C        ...      5
Auxiliary 'external' fitting basis          ... NOT available

Checking pre-screening integrals            ... done (  0.0 sec) Dimension = 574
Check shell pair data                       ... done (  0.0 sec)
Shell pair information
Shell pair cut-off parameter TPreSel        ...   2.5e-12
Total number of shell pairs                 ...    165025
Shell pairs after pre-screening             ...    109363
Total number of primitive shell pairs       ...    363359
Primitive shell pairs kept                  ...    177686
          la=0 lb=0:  16769 shell pairs
          la=1 lb=0:  26143 shell pairs
          la=1 lb=1:  10149 shell pairs
          la=2 lb=0:  16537 shell pairs
          la=2 lb=1:  12999 shell pairs
          la=2 lb=2:   4141 shell pairs
          la=3 lb=0:   7049 shell pairs
          la=3 lb=1:   5814 shell pairs
          la=3 lb=2:   3470 shell pairs
          la=3 lb=3:    711 shell pairs
          la=4 lb=0:   2183 shell pairs
          la=4 lb=1:   1801 shell pairs
          la=4 lb=2:   1095 shell pairs
          la=4 lb=3:    426 shell pairs
          la=4 lb=4:     76 shell pairs

Calculating one electron integrals          ... done (  0.2 sec)
Calculating RI/J V-Matrix + Cholesky decomp.... done (  0.0 sec)
Calculating RI/C V-Matrix + Cholesky decomp.... done (  0.7 sec)
Calculating Nuclear repulsion               ... done (  0.0 sec) ENN=    435.252569826074 Eh

Diagonalization of the overlap matrix:
Smallest eigenvalue                        ... 5.332e-08
Time for diagonalization                   ...    0.498 sec
Threshold for overlap eigenvalues          ... 1.000e-07
Number of eigenvalues below threshold      ... 2
Smallest eigenvalue above threshold        ... 1.087e-07

IMPORTANT:
Smallest eigenvalue of S below the DiffSThresh (1.000e-06) while
Thresh>1e-12 and/or TCut>1e-13! In order to avoid SCF convergence issues,
Thresh will be set to at least 1e-12 and TCut to at least 1e-13.
This can be turned off by adding %SCF DiffSThresh -1 END to the input.

Time for construction of square roots      ...    0.319 sec
Total time needed                          ...    0.842 sec

-------------------
DFT GRID GENERATION
-------------------

General Integration Accuracy     IntAcc      ... 4.388
Radial Grid Type                 RadialGrid  ... OptM3 with GC (2021)
Angular Grid (max. ang.)         AngularGrid ... 4 (Lebedev-302)
Angular grid pruning method      GridPruning ... 4 (adaptive)
Weight generation scheme         WeightScheme... mBecke (2022)
Basis function cutoff            BFCut       ... 1.0000e-11
Integration weight cutoff        WCut        ... 1.0000e-14
Partially contracted basis set               ... off
Rotationally invariant grid construction     ... off
Angular grids for H and He will be reduced by one unit
Diffuse basis detected: some atoms will have their outermost
                        angular grid increased by 1.

Total number of grid points                  ...   181971
Total number of batches                      ...     2860
Average number of points per batch           ...       63
Average number of grid points per atom       ...     4666

--------------------
COSX GRID GENERATION
--------------------

GRIDX 1
-------
General Integration Accuracy     IntAcc      ... 3.816
Radial Grid Type                 RadialGrid  ... OptM3 with GC (2021)
Angular Grid (max. ang.)         AngularGrid ... 1 (Lebedev-50)
Angular grid pruning method      GridPruning ... 4 (adaptive)
Weight generation scheme         WeightScheme... mBecke (2022)
Basis function cutoff            BFCut       ... 1.0000e-11
Integration weight cutoff        WCut        ... 1.0000e-14
Partially contracted basis set               ... on
Rotationally invariant grid construction     ... off
Angular grids for H and He will be reduced by one unit
Diffuse basis detected: some atoms will have their outermost
                        angular grid increased by 1.

Total number of grid points                  ...    23721
Total number of batches                      ...      209
Average number of points per batch           ...      113
Average number of grid points per atom       ...      608
UseSFitting                                  ... on

GRIDX 2
-------
General Integration Accuracy     IntAcc      ... 4.020
Radial Grid Type                 RadialGrid  ... OptM3 with GC (2021)
Angular Grid (max. ang.)         AngularGrid ... 2 (Lebedev-110)
Angular grid pruning method      GridPruning ... 4 (adaptive)
Weight generation scheme         WeightScheme... mBecke (2022)
Basis function cutoff            BFCut       ... 1.0000e-11
Integration weight cutoff        WCut        ... 1.0000e-14
Partially contracted basis set               ... on
Rotationally invariant grid construction     ... off
Angular grids for H and He will be reduced by one unit
Diffuse basis detected: some atoms will have their outermost
                        angular grid increased by 1.

Total number of grid points                  ...    52645
Total number of batches                      ...      432
Average number of points per batch           ...      121
Average number of grid points per atom       ...     1350
UseSFitting                                  ... on

GRIDX 3
-------
General Integration Accuracy     IntAcc      ... 4.338
Radial Grid Type                 RadialGrid  ... OptM3 with GC (2021)
Angular Grid (max. ang.)         AngularGrid ... 3 (Lebedev-194)
Angular grid pruning method      GridPruning ... 4 (adaptive)
Weight generation scheme         WeightScheme... mBecke (2022)
Basis function cutoff            BFCut       ... 1.0000e-11
Integration weight cutoff        WCut        ... 1.0000e-14
Partially contracted basis set               ... on
Rotationally invariant grid construction     ... off
Angular grids for H and He will be reduced by one unit
Diffuse basis detected: some atoms will have their outermost
                        angular grid increased by 1.

Total number of grid points                  ...   117433
Total number of batches                      ...      935
Average number of points per batch           ...      125
Average number of grid points per atom       ...     3011
UseSFitting                                  ... on
Initializing property integral containers    ... done (  0.0 sec)

SHARK setup successfully completed in  10.3 seconds

Maximum memory used throughout the entire STARTUP-calculation: 259.6 MB


           ************************************************************
           *        Program running with 10 parallel MPI-processes    *
           *              working on a common directory               *
           ************************************************************
-------------------------------------------------------------------------------
                                 ORCA GUESS
                   Start orbitals & Density for SCF / CASSCF
-------------------------------------------------------------------------------

------------
SCF SETTINGS
------------
Hamiltonian:
 Density Functional     Method          .... DFT(GTOs)
 Exchange Functional    Exchange        .... PBE
   PBE kappa parameter   XKappa         ....  0.804000
   PBE mue parameter    XMuePBE         ....  0.219520
 Correlation Functional Correlation     .... P86
 LDA part of GGA corr.  LDAOpt          .... VWN-5
 Gradients option       PostSCFGGA      .... off
 Hybrid DFT is turned on
   Fraction HF Exchange ScalHFX         ....  0.690000
   Scaling of DF-GGA-X  ScalDFX         ....  0.310000
   Scaling of DF-GGA-C  ScalDFC         ....  0.422400
   Scaling of DF-LDA-C  ScalLDAC        ....  0.422400
   Perturbative correction              ....  1.000000
 RI-approximation to the Coulomb term is turned on
   Number of AuxJ basis functions       .... 1077
   RIJ-COSX (HFX calculated with COS-X)).... on


General Settings:
 Integral files         IntName         .... pg1_frag
 Hartree-Fock type      HFTyp           .... RHF
 Total Charge           Charge          ....   -1
 Multiplicity           Mult            ....    1
 Number of Electrons    NEL             ....   66
 Basis Dimension        Dim             .... 1822
 Nuclear Repulsion      ENuc            ....    435.2525698261 Eh

Convergence Acceleration:
 AO-DIIS                CNVDIIS         .... on
   Start iteration      DIISMaxIt       ....    12
   Startup error        DIISStart       ....  0.200000
   # of expansion vecs  DIISMaxEq       ....     5
   Bias factor          DIISBfac        ....   1.050
   Max. coefficient     DIISMaxC        ....  10.000
 MO-DIIS                CNVKDIIS        .... off
 Trust-Rad. Augm. Hess. CNVTRAH         .... auto
   Auto Start mean grad. ratio tolernc. ....  1.125000
   Auto Start start iteration           ....    50
   Auto Start num. interpolation iter.  ....    10
   Max. Number of Micro iterations      ....    24
   Max. Number of Macro iterations      .... Maxiter - #DIIS iter
   Number of Davidson start vectors     ....     2
   Converg. threshold    (grad. norm)   ....   1.000e-05
   Grad. Scal. Fac. for Micro threshold ....   0.100
   Minimum threshold for Micro iter.    ....   1.000e-02
   NR start threshold (gradient norm)   ....   1.000e-04
   Initial trust radius                 ....   0.400
   Minimum AH scaling param. (alpha)    ....   1.000
   Maximum AH scaling param. (alpha)    .... 1000.000
   Quad. conv. algorithm                .... NR
   White noise on init. David. guess    .... on
   Maximum white noise                  ....   0.010
   Pseudo random numbers                .... off
   Inactive MOs                         .... canonical
   Orbital update algorithm             .... Taylor
   Preconditioner                       .... Diag
   Full preconditioner red. dimension   ....   250
 SOSCF                  CNVSOSCF        .... on
   Start iteration      SOSCFMaxIt      ....   150
   Startup grad/error   SOSCFStart      ....  0.003300
   Hessian update       SOSCFHessUp     .... L-BFGS
 Level Shifting         CNVShift        .... on
   Level shift para.    LevelShift      ....    0.2500
   Turn off err/grad.   ShiftErr        ....    0.0010
 Zerner damping         CNVZerner       .... off
 Static damping         CNVDamp         .... on
   Fraction old density DampFac         ....    0.7000
   Max. Damping (<1)    DampMax         ....    0.9800
   Min. Damping (>=0)   DampMin         ....    0.0000
   Turn off err/grad.   DampErr         ....    0.1000

SCF Procedure:
 Maximum # iterations   MaxIter         ....   125
 SCF integral mode      SCFMode         .... Direct
   Integral package                     .... SHARK and LIBINT hybrid scheme
 Reset frequency        DirectResetFreq ....    20
 Integral Threshold     Thresh          ....  1.000e-12 Eh
 Primitive CutOff       TCut            ....  1.000e-13 Eh

Convergence Tolerance:
 Convergence Check Mode ConvCheckMode   .... Total+1el-Energy
 Convergence forced     ConvForced      .... 0
 Energy Change          TolE            ....  1.000e-08 Eh
 1-El. energy change                    ....  1.000e-05 Eh
 Orbital Gradient       TolG            ....  1.000e-05
 Orbital Rotation angle TolX            ....  1.000e-05
 DIIS Error             TolErr          ....  5.000e-07

------------------------------
INITIAL GUESS: MODEL POTENTIAL
------------------------------
Loading Hartree-Fock densities                     ... done
Calculating cut-offs                               ... done
Initializing the effective Hamiltonian             ... done
Setting up the integral package (SHARK)            ... done
Starting the Coulomb interaction                   ... done (   0.6 sec)
Making the grid                                    ... done (   0.3 sec)
Mapping shells                                     ... done
Starting the XC term evaluation                    ... done (   1.1 sec)
  promolecular density results
     # of electrons  =     64.997058867
     EX              =    -67.175048336
     EC              =      0.055351423
     EX+EC           =    -67.119696913
Transforming the Hamiltonian                       ... done (   0.3 sec)
Diagonalizing the Hamiltonian                      ... done (   0.6 sec)
Back transforming the eigenvectors                 ... done (   0.2 sec)
Now organizing SCF variables                       ... done
                      ------------------
                      INITIAL GUESS DONE (   3.4 sec)
                      ------------------
             **** ENERGY FILE WAS UPDATED (pg1_frag.en.tmp) ****
Finished Guess after   4.9 sec
Maximum memory used throughout the entire GUESS-calculation: 249.2 MB


           ************************************************************
           *        Program running with 10 parallel MPI-processes    *
           *              working on a common directory               *
           ************************************************************

-------------------------------------------------------------------------------------------
                                      ORCA LEAN-SCF
                              memory conserving SCF solver
-------------------------------------------------------------------------------------------

--------------------
CPCM SOLVATION MODEL
--------------------
CPCM parameters:
  Epsilon                                         ...       3.0000
  Refrac                                          ...       1.3300
  Rsolv                                           ...       1.3000
  Surface type                                    ... GAUSSIAN VDW
  Discretization scheme                           ... Constant charge density
    Threshold for H atoms                         ...       5.0000 (charges/Ang^2)
    Threshold for non-H atoms                     ...       5.0000 (charges/Ang^2)
  Epsilon function type                           ...         CPCM
Solvent:                                          ... CUSTOM
Radii:
  Scheme                                          ... Element-dependent radii
  Radius for C  used is    3.8550 Bohr (=   2.0400 Ang.)
  Radius for O  used is    3.4469 Bohr (=   1.8240 Ang.)
  Radius for P  used is    4.0818 Bohr (=   2.1600 Ang.)
  Radius for H  used is    2.4944 Bohr (=   1.3200 Ang.)
  Radius for N  used is    3.5149 Bohr (=   1.8600 Ang.)
Calculating surface                               ...        done! (  0.0s)
Cavity surface points                             ...         3477
Cavity Volume                                     ...    2240.1049
Cavity Surface-area                               ...    1264.8718
Calculating surface distance matrix               ...        done! (  0.1s)
Performing Cholesky decomposition & store         ...        done! (  0.3s)
Overall time for CPCM initialization              ...                 0.3s

----------------------------------------D-I-I-S--------------------------------------------
Iteration    Energy (Eh)           Delta-E    RMSDP     MaxDP     DIISErr   Damp  Time(sec)
-------------------------------------------------------------------------------------------
               ***  Starting incremental Fock matrix formation  ***
    1    -720.5164757799810786     0.00e+00  1.01e-02  7.63e+00  3.83e-01  0.700  41.4
    2    -720.6593628918423065    -1.43e-01  1.00e-02  7.51e+00  1.95e-01  0.700  25.8
                               ***Turning on AO-DIIS***
    3    -720.7271480761631892    -6.78e-02  8.17e-03  5.76e+00  8.21e-02  0.700  24.2
    4    -720.7679893296864293    -4.08e-02  2.20e-02  1.46e+01  5.46e-02  0.000  22.8
    5    -720.8576245353864351    -8.96e-02  2.73e-03  9.09e-01  5.44e-03  0.000  25.1
                              *** Initializing SOSCF ***
---------------------------------------S-O-S-C-F--------------------------------------
Iteration    Energy (Eh)           Delta-E    RMSDP     MaxDP     MaxGrad    Time(sec)
--------------------------------------------------------------------------------------
    6    -720.8577912220385997    -1.67e-04  7.21e-04  3.05e-01  1.98e-03    23.9
               *** Restarting incremental Fock matrix formation ***
    7    -720.8578249301109508    -3.37e-05  1.78e-02  7.59e+00  1.69e-04    43.3
    8    -720.8578403403236052    -1.54e-05  1.15e-03  4.87e-01  4.25e-05    38.1
    9    -720.8578408101417381    -4.70e-07  7.55e-04  3.34e-01  4.09e-05    33.5
   10    -720.8578411715969878    -3.61e-07  1.16e-04  4.39e-02  3.86e-06    32.1
   11    -720.8578411624206410     9.18e-09  5.72e-05  1.84e-02  8.84e-06    28.7
                 **** Energy Check signals convergence ****

               *****************************************************
               *                     SUCCESS                       *
               *           SCF CONVERGED AFTER  11 CYCLES          *
               *****************************************************

Recomputing exchange energy using gridx3       ... done (   67.778 sec)
Old exchange energy                            :    -47.319668548 Eh
New exchange energy                            :    -47.319594575 Eh
Exchange energy change after final integration :      0.000073974 Eh
Total energy after final integration           :   -720.857767189 Eh
             **** ENERGY FILE WAS UPDATED (pg1_frag.en.tmp) ****

----------------
TOTAL SCF ENERGY
----------------

Total Energy       :       -720.85776718850650 Eh          -19615.53708 eV

Components:
Nuclear Repulsion  :        435.25256982607391 Eh           11843.82455 eV
Electronic Energy  :      -1156.03894925839177 Eh          -31457.41907 eV
One Electron Energy:      -1872.62806725259406 Eh          -50956.80030 eV
Two Electron Energy:        716.58911799420218 Eh           19499.38123 eV
CPCM Dielectric    :         -0.07146173010263 Eh              -1.94457 eV

Virial components:
Potential Energy   :      -1440.31889717775243 Eh          -39193.06973 eV
Kinetic Energy     :        719.46112998924593 Eh           19577.53265 eV
Virial Ratio       :          2.00194122676131

DFT components:
N(Alpha)           :       33.000025101122 electrons
N(Beta)            :       33.000025101122 electrons
N(Total)           :       66.000050202245 electrons
E(X)               :      -21.185695239570 Eh       
E(C)               :       -1.087023337585 Eh       
E(XC)              :      -22.272718577156 Eh       

CPCM Solvation Model Properties:
Surface-charge          :          0.98619496551806
Corrected charge        :          1.00000000000000
Outlying charge corr.   :          0.00000692953393 Eh               0.00019 eV
Free-energy (cav+disp)  :  This term is not implemented in the current solvation scheme

---------------
SCF CONVERGENCE
---------------

  Last Energy change         ...   -9.1763e-09  Tolerance :   1.0000e-08
  Last MAX-Density change    ...    1.8436e-02  Tolerance :   1.0000e-07
  Last RMS-Density change    ...    5.7181e-05  Tolerance :   5.0000e-09
  Last DIIS Error            ...    1.9751e-03  Tolerance :   5.0000e-07
  Last Orbital Gradient      ...    8.8356e-06  Tolerance :   1.0000e-05
  Last Orbital Rotation      ...    2.2515e-06  Tolerance :   1.0000e-05


----------------
ORBITAL ENERGIES
----------------

  NO   OCC          E(Eh)            E(eV) 
   0   2.0000     -78.847654     -2145.5537 
   1   2.0000     -19.950427      -542.8787 
   2   2.0000     -19.943841      -542.6995 
   3   2.0000     -19.869375      -540.6732 
   4   2.0000     -19.863504      -540.5134 
   5   2.0000     -10.810308      -294.1634 
   6   2.0000     -10.806465      -294.0589 
   7   2.0000      -7.127169      -193.9401 
   8   2.0000      -5.125373      -139.4685 
   9   2.0000      -5.124223      -139.4372 
  10   2.0000      -5.122149      -139.3808 
  11   2.0000      -1.214611       -33.0512 
  12   2.0000      -1.169572       -31.8257 
  13   2.0000      -1.089467       -29.6459 
  14   2.0000      -1.050982       -28.5987 
  15   2.0000      -0.804327       -21.8868 
  16   2.0000      -0.784097       -21.3364 
  17   2.0000      -0.616800       -16.7840 
  18   2.0000      -0.561153       -15.2697 
  19   2.0000      -0.527382       -14.3508 
  20   2.0000      -0.520800       -14.1717 
  21   2.0000      -0.506233       -13.7753 
  22   2.0000      -0.498348       -13.5607 
  23   2.0000      -0.468956       -12.7610 
  24   2.0000      -0.418721       -11.3940 
  25   2.0000      -0.391115       -10.6428 
  26   2.0000      -0.379973       -10.3396 
  27   2.0000      -0.357181        -9.7194 
  28   2.0000      -0.342004        -9.3064 
  29   2.0000      -0.340850        -9.2750 
  30   2.0000      -0.316017        -8.5993 
  31   2.0000      -0.301085        -8.1929 
  32   2.0000      -0.293062        -7.9746 
  33   0.0000       0.054536         1.4840 
  34   0.0000       0.068903         1.8749 
  35   0.0000       0.076985         2.0949 
  36   0.0000       0.079561         2.1650 
  37   0.0000       0.086063         2.3419 
  38   0.0000       0.093745         2.5509 
  39   0.0000       0.099552         2.7089 
  40   0.0000       0.102155         2.7798 
  41   0.0000       0.109194         2.9713 
  42   0.0000       0.111678         3.0389 
  43   0.0000       0.116512         3.1704 
*Only the first 10 virtual orbitals were printed.

                    ********************************
                    * MULLIKEN POPULATION ANALYSIS *
                    ********************************

-----------------------
MULLIKEN ATOMIC CHARGES
-----------------------
   0 C :   -0.135247
   1 C :   -0.237559
   2 O :   -0.381035
   3 O :   -0.878847
   4 O :   -0.824245
   5 O :   -0.380521
   6 P :    0.930449
   7 H :    0.008682
   8 H :    0.178196
   9 H :    0.293781
  10 H :    0.127730
  11 H :    0.153526
  12 H :    0.114208
  13 C :   -0.013386
  14 C :    0.017795
  15 H :    0.004578
  16 H :    0.007868
  17 C :    0.018574
  18 H :   -0.010210
  19 H :   -0.009666
  20 N :    0.017736
  21 H :    0.034226
  22 H :   -0.006973
  23 H :   -0.030954
  24 H :   -0.009343
  25 H :   -0.000237
  26 H :    0.027272
  27 C :   -0.004513
  28 N :   -0.005467
  29 N :    0.000458
  30 H :    0.000491
  31 C :    0.003166
  32 C :    0.053536
  33 H :   -0.068706
  34 C :    0.002348
  35 H :    0.000453
  36 H :   -0.000895
  37 H :    0.001174
  38 H :    0.001557
Sum of atomic charges:   -1.0000000

--------------------------------
MULLIKEN REDUCED ORBITAL CHARGES
--------------------------------
  0 C s       :     3.218534  s :     3.218534
      pz      :     1.025471  p :     2.749348
      px      :     0.669970
      py      :     1.053907
      dz2     :     0.016378  d :     0.150560
      dxz     :     0.019186
      dyz     :     0.049545
      dx2y2   :     0.017589
      dxy     :     0.047861
      f0      :     0.001633  f :     0.015092
      f+1     :     0.001636
      f-1     :     0.001819
      f+2     :     0.001422
      f-2     :     0.001833
      f+3     :     0.004223
      f-3     :     0.002527
      g0      :     0.000108  g :     0.001713
      g+1     :     0.000213
      g-1     :     0.000066
      g+2     :     0.000156
      g-2     :     0.000173
      g+3     :     0.000084
      g-3     :     0.000191
      g+4     :     0.000424
      g-4     :     0.000298

  1 C s       :     3.221531  s :     3.221531
      pz      :     0.862672  p :     2.863081
      px      :     0.999736
      py      :     1.000673
      dz2     :     0.049615  d :     0.136540
      dxz     :     0.021646
      dyz     :     0.018331
      dx2y2   :     0.045814
      dxy     :     0.001134
      f0      :     0.002523  f :     0.014705
      f+1     :     0.002566
      f-1     :     0.001609
      f+2     :     0.003121
      f-2     :     0.002206
      f+3     :     0.001491
      f-3     :     0.001190
      g0      :     0.000127  g :     0.001703
      g+1     :     0.000271
      g-1     :     0.000189
      g+2     :     0.000243
      g-2     :     0.000265
      g+3     :     0.000230
      g-3     :     0.000211
      g+4     :     0.000104
      g-4     :     0.000063

  2 O s       :     3.686304  s :     3.686304
      pz      :     1.662511  p :     4.679248
      px      :     1.318894
      py      :     1.697843
      dz2     :     0.000980  d :     0.011304
      dxz     :    -0.001048
      dyz     :     0.001080
      dx2y2   :     0.008737
      dxy     :     0.001554
      f0      :     0.000377  f :     0.004027
      f+1     :     0.000524
      f-1     :     0.000343
      f+2     :     0.000488
      f-2     :     0.000551
      f+3     :     0.000742
      f-3     :     0.001002
      g0      :     0.000014  g :     0.000153
      g+1     :     0.000022
      g-1     :     0.000009
      g+2     :     0.000016
      g-2     :     0.000019
      g+3     :     0.000012
      g-3     :     0.000018
      g+4     :     0.000020
      g-4     :     0.000025

  3 O s       :     3.957440  s :     3.957440
      pz      :     1.756886  p :     4.901482
      px      :     1.435022
      py      :     1.709574
      dz2     :     0.000958  d :     0.017677
      dxz     :     0.004521
      dyz     :     0.002188
      dx2y2   :     0.002542
      dxy     :     0.007468
      f0      :     0.000250  f :     0.002175
      f+1     :     0.000253
      f-1     :     0.000078
      f+2     :     0.000272
      f-2     :     0.000209
      f+3     :     0.000638
      f-3     :     0.000475
      g0      :     0.000004  g :     0.000072
      g+1     :     0.000010
      g-1     :     0.000002
      g+2     :     0.000006
      g-2     :     0.000005
      g+3     :     0.000004
      g-3     :     0.000007
      g+4     :     0.000019
      g-4     :     0.000015

  4 O s       :     3.948593  s :     3.948593
      pz      :     1.485820  p :     4.860147
      px      :     1.648172
      py      :     1.726154
      dz2     :     0.005172  d :     0.013215
      dxz     :     0.003147
      dyz     :     0.003059
      dx2y2   :     0.000523
      dxy     :     0.001314
      f0      :     0.000606  f :     0.002212
      f+1     :     0.000443
      f-1     :     0.000393
      f+2     :     0.000291
      f-2     :     0.000364
      f+3     :     0.000054
      f-3     :     0.000061
      g0      :     0.000014  g :     0.000077
      g+1     :     0.000020
      g-1     :     0.000007
      g+2     :     0.000013
      g-2     :     0.000013
      g+3     :     0.000005
      g-3     :     0.000005
      g+4     :     0.000001
      g-4     :     0.000001

  5 O s       :     3.730008  s :     3.730008
      pz      :     1.523497  p :     4.648076
      px      :     1.662435
      py      :     1.462144
      dz2     :     0.000127  d :    -0.001843
      dxz     :     0.007703
      dyz     :    -0.005844
      dx2y2   :    -0.001579
      dxy     :    -0.002250
      f0      :     0.000478  f :     0.004123
      f+1     :     0.000573
      f-1     :     0.000696
      f+2     :     0.000705
      f-2     :     0.000759
      f+3     :     0.000484
      f-3     :     0.000427
      g0      :     0.000011  g :     0.000157
      g+1     :     0.000017
      g-1     :     0.000012
      g+2     :     0.000024
      g-2     :     0.000024
      g+3     :     0.000016
      g-3     :     0.000028
      g+4     :     0.000013
      g-4     :     0.000013

  6 P s       :     5.197808  s :     5.197808
      pz      :     2.624279  p :     7.909686
      px      :     2.661691
      py      :     2.623716
      dz2     :     0.159642  d :     0.782914
      dxz     :     0.170088
      dyz     :     0.126305
      dx2y2   :     0.162273
      dxy     :     0.164607
      f0      :     0.027299  f :     0.153268
      f+1     :     0.015701
      f-1     :     0.022276
      f+2     :     0.028688
      f-2     :     0.015976
      f+3     :     0.028659
      f-3     :     0.014669
      g0      :     0.002712  g :     0.025875
      g+1     :     0.003672
      g-1     :     0.001823
      g+2     :     0.003620
      g-2     :     0.003058
      g+3     :     0.002395
      g-3     :     0.003203
      g+4     :     0.003042
      g-4     :     0.002350

  7 H s       :     0.933830  s :     0.933830
      pz      :     0.007348  p :     0.053979
      px      :     0.005732
      py      :     0.040898
      dz2     :     0.000190  d :     0.003293
      dxz     :     0.000135
      dyz     :     0.001348
      dx2y2   :     0.000576
      dxy     :     0.001043
      f0      :     0.000028  f :     0.000216
      f+1     :     0.000003
      f-1     :     0.000020
      f+2     :     0.000054
      f-2     :     0.000020
      f+3     :     0.000045
      f-3     :     0.000046

  8 H s       :     0.753300  s :     0.753300
      pz      :     0.041061  p :     0.064686
      px      :     0.006583
      py      :     0.017041
      dz2     :     0.001148  d :     0.003601
      dxz     :     0.001181
      dyz     :     0.000570
      dx2y2   :     0.000516
      dxy     :     0.000187
      f0      :     0.000061  f :     0.000217
      f+1     :     0.000050
      f-1     :     0.000020
      f+2     :     0.000048
      f-2     :     0.000028
      f+3     :    -0.000001
      f-3     :     0.000011

  9 H s       :     0.664216  s :     0.664216
      pz      :     0.009946  p :     0.038007
      px      :     0.019445
      py      :     0.008616
      dz2     :     0.000320  d :     0.003771
      dxz     :     0.001145
      dyz     :     0.000193
      dx2y2   :     0.000648
      dxy     :     0.001466
      f0      :     0.000016  f :     0.000225
      f+1     :     0.000035
      f-1     :     0.000003
      f+2     :     0.000035
      f-2     :     0.000021
      f+3     :     0.000030
      f-3     :     0.000086

 10 H s       :     0.827693  s :     0.827693
      pz      :     0.020098  p :     0.041061
      px      :     0.013153
      py      :     0.007810
      dz2     :     0.000960  d :     0.003303
      dxz     :     0.000674
      dyz     :     0.000669
      dx2y2   :     0.000462
      dxy     :     0.000537
      f0      :     0.000056  f :     0.000213
      f+1     :     0.000029
      f-1     :     0.000022
      f+2     :     0.000052
      f-2     :     0.000032
      f+3     :     0.000008
      f-3     :     0.000015

 11 H s       :     0.780183  s :     0.780183
      pz      :     0.022879  p :     0.062165
      px      :     0.010656
      py      :     0.028630
      dz2     :     0.001422  d :     0.003895
      dxz     :     0.000689
      dyz     :     0.000510
      dx2y2   :     0.000480
      dxy     :     0.000794
      f0      :     0.000077  f :     0.000230
      f+1     :     0.000012
      f-1     :     0.000043
      f+2     :     0.000024
      f-2     :     0.000038
      f+3     :     0.000022
      f-3     :     0.000015

 12 H s       :     0.831366  s :     0.831366
      pz      :     0.008621  p :     0.050348
      px      :     0.021578
      py      :     0.020149
      dz2     :     0.000417  d :     0.003850
      dxz     :     0.000542
      dyz     :     0.001036
      dx2y2   :     0.001381
      dxy     :     0.000474
      f0      :     0.000027  f :     0.000228
      f+1     :     0.000019
      f-1     :     0.000030
      f+2     :     0.000020
      f-2     :     0.000053
      f+3     :     0.000038
      f-3     :     0.000042

 13 C s       :    -0.000170  s :    -0.000170
      pz      :     0.013429  p :     0.003701
      px      :    -0.006913
      py      :    -0.002815
      dz2     :     0.005675  d :     0.009862
      dxz     :     0.003684
      dyz     :     0.000695
      dx2y2   :     0.000622
      dxy     :    -0.000814
      f0      :    -0.000001  f :    -0.000007
      f+1     :    -0.000005
      f-1     :    -0.000000
      f+2     :    -0.000001
      f-2     :    -0.000000
      f+3     :    -0.000000
      f-3     :    -0.000000
      g0      :     0.000000  g :    -0.000000
      g+1     :     0.000000
      g-1     :    -0.000000
      g+2     :    -0.000000
      g-2     :    -0.000000
      g+3     :    -0.000000
      g-3     :    -0.000000
      g+4     :    -0.000000
      g-4     :     0.000000

 14 C s       :     0.000897  s :     0.000897
      pz      :    -0.018879  p :    -0.016473
      px      :    -0.001257
      py      :     0.003664
      dz2     :    -0.000122  d :    -0.002221
      dxz     :    -0.002766
      dyz     :     0.000258
      dx2y2   :     0.000217
      dxy     :     0.000192
      f0      :     0.000000  f :     0.000001
      f+1     :    -0.000000
      f-1     :     0.000000
      f+2     :     0.000000
      f-2     :     0.000000
      f+3     :     0.000000
      f-3     :     0.000000
      g0      :     0.000000  g :    -0.000000
      g+1     :    -0.000000
      g-1     :    -0.000000
      g+2     :    -0.000000
      g-2     :    -0.000000
      g+3     :     0.000000
      g-3     :     0.000000
      g+4     :    -0.000000
      g-4     :    -0.000000

 15 H s       :    -0.003516  s :    -0.003516
      pz      :    -0.000457  p :    -0.001062
      px      :    -0.000383
      py      :    -0.000222
      dz2     :     0.000000  d :    -0.000000
      dxz     :    -0.000000
      dyz     :    -0.000000
      dx2y2   :     0.000000
      dxy     :    -0.000000
      f0      :     0.000000  f :     0.000000
      f+1     :     0.000000
      f-1     :    -0.000000
      f+2     :     0.000000
      f-2     :    -0.000000
      f+3     :    -0.000000
      f-3     :     0.000000

 16 H s       :    -0.005975  s :    -0.005975
      pz      :    -0.001447  p :    -0.001893
      px      :     0.000262
      py      :    -0.000708
      dz2     :    -0.000000  d :    -0.000000
      dxz     :    -0.000000
      dyz     :    -0.000000
      dx2y2   :    -0.000000
      dxy     :    -0.000000
      f0      :    -0.000000  f :    -0.000000
      f+1     :    -0.000000
      f-1     :    -0.000000
      f+2     :    -0.000000
      f-2     :    -0.000000
      f+3     :     0.000000
      f-3     :    -0.000000

 17 C s       :    -0.006015  s :    -0.006015
      pz      :    -0.012552  p :    -0.003121
      px      :    -0.012111
      py      :     0.021541
      dz2     :    -0.001993  d :    -0.009430
      dxz     :    -0.000666
      dyz     :    -0.005128
      dx2y2   :    -0.001421
      dxy     :    -0.000222
      f0      :    -0.000001  f :    -0.000008
      f+1     :    -0.000000
      f-1     :    -0.000001
      f+2     :    -0.000002
      f-2     :    -0.000002
      f+3     :    -0.000002
      f-3     :     0.000001
      g0      :     0.000000  g :     0.000000
      g+1     :    -0.000000
      g-1     :     0.000000
      g+2     :    -0.000000
      g-2     :    -0.000000
      g+3     :    -0.000000
      g-3     :     0.000000
      g+4     :     0.000000
      g-4     :     0.000000

 18 H s       :     0.007151  s :     0.007151
      pz      :    -0.000458  p :     0.003059
      px      :     0.000069
      py      :     0.003447
      dz2     :    -0.000000  d :     0.000000
      dxz     :    -0.000000
      dyz     :     0.000000
      dx2y2   :     0.000000
      dxy     :     0.000000
      f0      :     0.000000  f :     0.000000
      f+1     :    -0.000000
      f-1     :    -0.000000
      f+2     :     0.000000
      f-2     :    -0.000000
      f+3     :     0.000000
      f-3     :     0.000000

 19 H s       :     0.019034  s :     0.019034
      pz      :    -0.001038  p :    -0.009380
      px      :     0.001654
      py      :    -0.009996
      dz2     :     0.000003  d :     0.000011
      dxz     :    -0.000003
      dyz     :     0.000007
      dx2y2   :     0.000004
      dxy     :     0.000000
      f0      :     0.000000  f :     0.000000
      f+1     :    -0.000000
      f-1     :    -0.000000
      f+2     :     0.000000
      f-2     :    -0.000000
      f+3     :     0.000000
      f-3     :     0.000000

 20 N s       :     0.001607  s :     0.001607
      pz      :    -0.002353  p :    -0.017534
      px      :     0.002095
      py      :    -0.017276
      dz2     :     0.000095  d :    -0.001786
      dxz     :    -0.000056
      dyz     :    -0.001435
      dx2y2   :    -0.001097
      dxy     :     0.000708
      f0      :    -0.000002  f :    -0.000022
      f+1     :    -0.000000
      f-1     :    -0.000003
      f+2     :    -0.000001
      f-2     :    -0.000005
      f+3     :    -0.000009
      f-3     :    -0.000002
      g0      :    -0.000000  g :    -0.000000
      g+1     :    -0.000000
      g-1     :    -0.000000
      g+2     :    -0.000000
      g-2     :    -0.000000
      g+3     :    -0.000000
      g-3     :    -0.000000
      g+4     :    -0.000000
      g-4     :    -0.000000

 21 H s       :    -0.026317  s :    -0.026317
      pz      :    -0.000452  p :    -0.007902
      px      :     0.000244
      py      :    -0.007694
      dz2     :    -0.000001  d :    -0.000008
      dxz     :     0.000000
      dyz     :     0.000000
      dx2y2   :    -0.000006
      dxy     :    -0.000001
      f0      :     0.000000  f :    -0.000000
      f+1     :     0.000000
      f-1     :    -0.000000
      f+2     :     0.000000
      f-2     :     0.000000
      f+3     :    -0.000000
      f-3     :    -0.000000

 22 H s       :     0.004950  s :     0.004950
      pz      :     0.000150  p :     0.002017
      px      :     0.001640
      py      :     0.000226
      dz2     :     0.000001  d :     0.000006
      dxz     :     0.000002
      dyz     :    -0.000000
      dx2y2   :    -0.000000
      dxy     :     0.000004
      f0      :    -0.000000  f :     0.000000
      f+1     :     0.000000
      f-1     :     0.000000
      f+2     :    -0.000000
      f-2     :     0.000000
      f+3     :    -0.000000
      f-3     :     0.000000

 23 H s       :     0.087500  s :     0.087500
      pz      :    -0.010922  p :    -0.056373
      px      :    -0.005396
      py      :    -0.040055
      dz2     :    -0.000046  d :    -0.000171
      dxz     :    -0.000061
      dyz     :     0.000117
      dx2y2   :     0.000015
      dxy     :    -0.000197
      f0      :    -0.000002  f :    -0.000002
      f+1     :    -0.000000
      f-1     :     0.000004
      f+2     :    -0.000003
      f-2     :    -0.000000
      f+3     :     0.000000
      f-3     :    -0.000000

 24 H s       :     0.028195  s :     0.028195
      pz      :    -0.011970  p :    -0.018850
      px      :    -0.003451
      py      :    -0.003430
      dz2     :     0.000003  d :    -0.000002
      dxz     :    -0.000002
      dyz     :    -0.000002
      dx2y2   :    -0.000001
      dxy     :    -0.000001
      f0      :     0.000000  f :     0.000000
      f+1     :     0.000000
      f-1     :     0.000000
      f+2     :     0.000000
      f-2     :     0.000000
      f+3     :     0.000000
      f-3     :     0.000000

 25 H s       :    -0.000371  s :    -0.000371
      pz      :     0.000205  p :     0.000608
      px      :     0.000265
      py      :     0.000138
      dz2     :    -0.000000  d :    -0.000000
      dxz     :    -0.000000
      dyz     :     0.000000
      dx2y2   :     0.000000
      dxy     :    -0.000000
      f0      :     0.000000  f :    -0.000000
      f+1     :    -0.000000
      f-1     :    -0.000000
      f+2     :     0.000000
      f-2     :    -0.000000
      f+3     :    -0.000000
      f-3     :    -0.000000

 26 H s       :    -0.025715  s :    -0.025715
      pz      :     0.001369  p :    -0.001551
      px      :    -0.003543
      py      :     0.000624
      dz2     :    -0.000005  d :    -0.000006
      dxz     :     0.000001
      dyz     :    -0.000000
      dx2y2   :    -0.000002
      dxy     :     0.000000
      f0      :     0.000000  f :    -0.000000
      f+1     :    -0.000000
      f-1     :     0.000000
      f+2     :     0.000000
      f-2     :    -0.000000
      f+3     :    -0.000000
      f-3     :     0.000000

 27 C s       :    -0.000038  s :    -0.000038
      pz      :     0.003130  p :     0.005565
      px      :    -0.000425
      py      :     0.002859
      dz2     :     0.000062  d :    -0.001013
      dxz     :     0.000145
      dyz     :    -0.001321
      dx2y2   :    -0.000075
      dxy     :     0.000177
      f0      :     0.000000  f :     0.000000
      f+1     :    -0.000000
      f-1     :     0.000000
      f+2     :     0.000000
      f-2     :    -0.000000
      f+3     :    -0.000000
      f-3     :     0.000000
      g0      :    -0.000000  g :    -0.000000
      g+1     :    -0.000000
      g-1     :    -0.000000
      g+2     :    -0.000000
      g-2     :    -0.000000
      g+3     :    -0.000000
      g-3     :    -0.000000
      g+4     :    -0.000000
      g-4     :    -0.000000

 28 N s       :     0.008908  s :     0.008908
      pz      :     0.000566  p :     0.000561
      px      :    -0.000349
      py      :     0.000344
      dz2     :    -0.000467  d :    -0.004002
      dxz     :    -0.000033
      dyz     :    -0.002252
      dx2y2   :    -0.000576
      dxy     :    -0.000674
      f0      :     0.000000  f :     0.000001
      f+1     :     0.000000
      f-1     :     0.000000
      f+2     :    -0.000000
      f-2     :     0.000000
      f+3     :     0.000000
      f-3     :    -0.000000
      g0      :    -0.000000  g :    -0.000000
      g+1     :     0.000000
      g-1     :    -0.000000
      g+2     :     0.000000
      g-2     :    -0.000000
      g+3     :    -0.000000
      g-3     :    -0.000000
      g+4     :    -0.000000
      g-4     :    -0.000000

 29 N s       :    -0.000730  s :    -0.000730
      pz      :    -0.000207  p :    -0.000350
      px      :     0.000001
      py      :    -0.000144
      dz2     :     0.000034  d :     0.000621
      dxz     :     0.000077
      dyz     :     0.000351
      dx2y2   :     0.000021
      dxy     :     0.000138
      f0      :    -0.000000  f :     0.000000
      f+1     :    -0.000000
      f-1     :     0.000000
      f+2     :     0.000000
      f-2     :    -0.000000
      f+3     :     0.000000
      f-3     :     0.000000
      g0      :    -0.000000  g :    -0.000000
      g+1     :    -0.000000
      g-1     :     0.000000
      g+2     :     0.000000
      g-2     :    -0.000000
      g+3     :     0.000000
      g-3     :    -0.000000
      g+4     :    -0.000000
      g-4     :    -0.000000

 30 H s       :    -0.000244  s :    -0.000244
      pz      :    -0.000108  p :    -0.000246
      px      :    -0.000074
      py      :    -0.000064
      dz2     :    -0.000000  d :    -0.000000
      dxz     :    -0.000000
      dyz     :    -0.000000
      dx2y2   :     0.000000
      dxy     :    -0.000000
      f0      :     0.000000  f :    -0.000000
      f+1     :    -0.000000
      f-1     :    -0.000000
      f+2     :    -0.000000
      f-2     :    -0.000000
      f+3     :     0.000000
      f-3     :    -0.000000

 31 C s       :    -0.000311  s :    -0.000311
      pz      :    -0.002811  p :    -0.003776
      px      :     0.001635
      py      :    -0.002599
      dz2     :     0.000371  d :     0.000921
      dxz     :    -0.000489
      dyz     :     0.000525
      dx2y2   :     0.000511
      dxy     :     0.000003
      f0      :    -0.000000  f :    -0.000000
      f+1     :    -0.000000
      f-1     :     0.000000
      f+2     :     0.000000
      f-2     :    -0.000000
      f+3     :    -0.000000
      f-3     :    -0.000000
      g0      :    -0.000000  g :    -0.000000
      g+1     :    -0.000000
      g-1     :    -0.000000
      g+2     :    -0.000000
      g-2     :     0.000000
      g+3     :     0.000000
      g-3     :    -0.000000
      g+4     :    -0.000000
      g-4     :    -0.000000

 32 C s       :    -0.016416  s :    -0.016416
      pz      :    -0.020444  p :    -0.043407
      px      :    -0.012457
      py      :    -0.010506
      dz2     :     0.001824  d :     0.006306
[...]
      dyz     :     0.000000
      dx2y2   :     0.000000
      dxy     :     0.000000
      f0      :     0.000000  f :     0.000000
      f+1     :     0.000000
      f-1     :     0.000000
      f+2     :     0.000000
      f-2     :     0.000000
      f+3     :     0.000000
      f-3     :     0.000000



                      *****************************
                      * MAYER POPULATION ANALYSIS *
                      *****************************

  NA   - Mulliken gross atomic population
  ZA   - Total nuclear charge
  QA   - Mulliken gross atomic charge
  VA   - Mayer's total valence
  BVA  - Mayer's bonded valence
  FA   - Mayer's free valence

  ATOM       NA         ZA         QA         VA         BVA        FA
  0 C      6.1352     6.0000    -0.1352     3.5227     3.5227     0.0000
  1 C      6.2376     6.0000    -0.2376     3.5403     3.5403    -0.0000
  2 O      8.3810     8.0000    -0.3810     1.1293     1.1293     0.0000
  3 O      8.8788     8.0000    -0.8788     1.6327     1.6327    -0.0000
  4 O      8.8242     8.0000    -0.8242     1.6832     1.6832     0.0000
  5 O      8.3805     8.0000    -0.3805     1.1569     1.1569     0.0000
  6 P     14.0696    15.0000     0.9304     5.2611     5.2611    -0.0000
  7 H      0.9913     1.0000     0.0087     1.1882     1.1882    -0.0000
  8 H      0.8218     1.0000     0.1782     1.2198     1.2198    -0.0000
  9 H      0.7062     1.0000     0.2938     0.9341     0.9341    -0.0000
 10 H      0.8723     1.0000     0.1277     1.0203     1.0203     0.0000
 11 H      0.8465     1.0000     0.1535     1.1902     1.1902    -0.0000
 12 H      0.8858     1.0000     0.1142     1.1494     1.1494     0.0000
 13 C      0.0134     0.0000    -0.0134     0.0262     0.0262    -0.0000
 14 C     -0.0178     0.0000     0.0178    -0.0359    -0.0359    -0.0000
 15 H     -0.0046     0.0000     0.0046    -0.0092    -0.0092     0.0000
 16 H     -0.0079     0.0000     0.0079    -0.0158    -0.0158    -0.0000
 17 C     -0.0186     0.0000     0.0186    -0.0375    -0.0375    -0.0000
 18 H      0.0102     0.0000    -0.0102     0.0203     0.0203     0.0000
 19 H      0.0097     0.0000    -0.0097     0.0194     0.0194     0.0000
 20 N     -0.0177     0.0000     0.0177    -0.0356    -0.0356     0.0000
 21 H     -0.0342     0.0000     0.0342    -0.0696    -0.0696     0.0000
 22 H      0.0070     0.0000    -0.0070     0.0139     0.0139     0.0000
 23 H      0.0310     0.0000    -0.0310     0.0569     0.0569    -0.0000
 24 H      0.0093     0.0000    -0.0093     0.0184     0.0184    -0.0000
 25 H      0.0002     0.0000    -0.0002     0.0005     0.0005     0.0000
 26 H     -0.0273     0.0000     0.0273    -0.0553    -0.0553     0.0000
 27 C      0.0045     0.0000    -0.0045     0.0090     0.0090     0.0000
 28 N      0.0055     0.0000    -0.0055     0.0109     0.0109     0.0000
 29 N     -0.0005     0.0000     0.0005    -0.0009    -0.0009     0.0000
 30 H     -0.0005     0.0000     0.0005    -0.0010    -0.0010     0.0000
 31 C     -0.0032     0.0000     0.0032    -0.0063    -0.0063     0.0000
 32 C     -0.0535     0.0000     0.0535    -0.1118    -0.1118     0.0000
 33 H      0.0687     0.0000    -0.0687     0.1302     0.1302    -0.0000
 34 C     -0.0023     0.0000     0.0023    -0.0047    -0.0047    -0.0000
 35 H     -0.0005     0.0000     0.0005    -0.0009    -0.0009     0.0000
 36 H      0.0009     0.0000    -0.0009     0.0018     0.0018    -0.0000
 37 H     -0.0012     0.0000     0.0012    -0.0023    -0.0023    -0.0000
 38 H     -0.0016     0.0000     0.0016    -0.0031    -0.0031    -0.0000

  Mayer bond orders larger than 0.100000
B(  0-C ,  2-O ) :   0.6873 B(  0-C ,  4-O ) :  -0.1052 B(  0-C , 10-H ) :   1.0471 
B(  0-C , 11-H ) :   0.9113 B(  0-C , 12-H ) :   1.0050 B(  1-C ,  5-O ) :   0.7146 
B(  1-C ,  7-H ) :   1.1492 B(  1-C ,  8-H ) :   1.0006 B(  1-C ,  9-H ) :   0.8112 
B(  2-O ,  5-O ) :  -0.1504 B(  2-O ,  6-P ) :   0.6628 B(  3-O ,  6-P ) :   1.8146 
B(  4-O ,  5-O ) :  -0.1640 B(  4-O ,  6-P ) :   1.9821 B(  4-O , 33-H ) :   0.1033 
B(  5-O ,  6-P ) :   0.7297 B(  6-P , 11-H ) :   0.1178 B(  7-H ,  8-H ) :   0.1031 


-------
TIMINGS
-------

Total SCF time: 0 days 0 hours 6 min 50 sec 

Total time                  ....     410.441 sec
Sum of individual times     ....     411.319 sec  (100.2%)

SCF preparation             ....       1.439 sec  (  0.4%)
Fock matrix formation       ....     388.726 sec  ( 94.7%)
  Startup                   ....       0.644 sec  (  0.2% of F)
  Split-RI-J                ....      18.357 sec  (  4.7% of F)
  Chain of spheres X        ....     300.740 sec  ( 77.4% of F)
  XC integration            ....      41.257 sec  ( 10.6% of F)
    XC Preparation          ....       0.000 sec  (  0.0% of XC)
    Basis function eval.    ....       3.716 sec  (  9.0% of XC)
    Density eval.           ....      13.647 sec  ( 33.1% of XC)
    XC-Functional eval.     ....       0.081 sec  (  0.2% of XC)
    XC-Potential eval.      ....      15.309 sec  ( 37.1% of XC)
  CPCM terms                ....      26.210 sec  (  6.7% of F)
Diagonalization             ....       0.000 sec  (  0.0%)
Density matrix formation    ....       1.655 sec  (  0.4%)
Total Energy calculation    ....       0.906 sec  (  0.2%)
Population analysis         ....       0.815 sec  (  0.2%)
Orbital Transformation      ....       2.710 sec  (  0.7%)
Orbital Orthonormalization  ....       0.000 sec  (  0.0%)
DIIS solution               ....      10.279 sec  (  2.5%)
SOSCF solution              ....       4.583 sec  (  1.1%)
Finished LeanSCF after 411.0 sec

Maximum memory used throughout the entire LEANSCF-calculation: 406.5 MB


           ************************************************************
           *        Program running with 10 parallel MPI-processes    *
           *              working on a common directory               *
           ************************************************************

------------------------------------------------------------------------------
                                ORCA  MP2 
------------------------------------------------------------------------------

Freezing NCore=22 chemical core electrons

-------------
RI-MP2 ENERGY
-------------
Dimension of the orbital basis            ... 1822
Dimension of the AuxC basis               ... 4125
Memory devoted to MP2                     ... 2000 MB   
Data format for matrix containers         ... DOUBLE
Compression type for matrix containers    ... UNCOMPRESSED
Scaling for aa/bb pairs                   ...   5.660e-02
Scaling for ab pairs                      ...   5.935e-01
Overall scaling of the MP2 energy         ...   1.000e+00

-----------------------
SHARK RI TRANSFORMATION
-----------------------

Number of basis functions                ...   1822
Number of aux functions                  ...   4125
Number of operators                      ...      1
Generation of IJK                        ... NO
Generation of IAK                        ... YES
Generation of ABK                        ... NO
Orbital Range Operator  0:   11-  32 to   33-1821

Aux basis identifier                     ...   AUXC
Contraction scheme used                  ... SEGMENTED
Do orthogonalization                     ... YES
All operator combinations                ... NO
Transpose (ia|K)                         ... NO
Integral generator used                  ... LIBINT
Starting integral generation + trafo... 
Half trafo (segmented) done. Total time = 34.5 sec. integrals=  9.2 sec trafo= 14.4 sec
Integral generation and half transformation done ( 34.5 sec)

Reading or making V^(-1/2)          ... done (  0.2 sec)
Sorting IAK integrals               ... done (  9.1 sec)

SHARK RI integral transformation done. Total time = 43.9 sec.

Opening buffers                              ... done

Starting loop over batches of integrals:

Operator 0  - window                       ... ( 11- 32)x( 33-1821)
Operator 0  - Memory available             ...  2000 MB
Operator 0  - Memory needed per MO         ...  56.3 MB
Operator 0  - Number of orbitals per batch ... 3
Operator 0  - Number of batches            ... 1

OPERATOR  0   PASS   0:  MOs    11 ...   13 +   14 ...   16 +   17 ...   19 +   20 ...   22
                            +   23 ...   25 +   26 ...   28 +   29 ...   31 +   32 ...   32
  Reading integrals       ... ok
  Internal MO  13
Time spent in pair loops =    73.659 sec
Deleting buffers (Ka|jb) ...done

-----------------------------------------------
 RI-MP2 CORRELATION ENERGY:     -0.810337684 Eh
-----------------------------------------------


-------
TIMINGS
-------

Total time                :  125.139 sec
Integral trafo            :   43.939 sec ( 35.1%)
I/O of integrals          :    0.094 sec (  0.1%)
K(i,j) operators          :    2.485 sec (  2.0%)
T(i,j) pair energies      :    0.213 sec (  0.2%)
V**(-1/2)                 :    7.540 sec (  6.0%)


---------------------------------------
MP2 TOTAL ENERGY:     -721.668104872 Eh
---------------------------------------

Maximum memory used throughout the entire MP2-calculation: 584.7 MB


-------------------------------------------------------------------------------
                          DFT DISPERSION CORRECTION                            
                                                                               
                                DFTD4 V3.4.0                                   
-------------------------------------------------------------------------------
The REV-DSD-PBEP86-2021 functional is recognized
A user input s6-coefficient scaling factor has been recognized
A user input a1-coefficient scaling factor has been recognized
A user input s8-coefficient scaling factor has been recognized
A user input a2-coefficient scaling factor has been recognized
A user input s9-coefficient scaling factor has been recognized
Active option DFTDOPT                   ...         5   

-------------------------   ----------------
Dispersion correction           -0.008142672
-------------------------   ----------------


-------------------------   --------------------
FINAL SINGLE POINT ENERGY      -721.676247544033
-------------------------   --------------------



           ************************************************************
           *        Program running with 10 parallel MPI-processes    *
           *              working on a common directory               *
           ************************************************************

------------------------------------------------------------------------------
                              ORCA PROPERTY CALCULATIONS
------------------------------------------------------------------------------

GBWName                                 ... pg1_frag.gbw
Number of atoms                         ...     39
Number of basis functions               ...   1822
Max core memory                         ...   2000 MB

Electric properties:
Dipole moment                           ... YES
Quadrupole moment                       ...  NO
Static polarizability (Dipole/Dipole)   ...  NO
Static polarizability (Dipole/Quad.)    ...  NO
Static polarizability (Quad./Quad.)     ...  NO
Static polarizability (Velocity)        ...  NO

Atomic electric properties:
Dipole moment                           ...  NO
Quadrupole moment                       ...  NO
Static polarizability                   ...  NO

Choice of electric origin               ... Center of mass
Position of electric origin             ...    -6.638400     6.041314    -4.113962

General magnetic properties:
Magnetizability                         ...  NO

EPR properties:
g-Tensor (aka g-matrix)                 ...  NO
Zero-Field splitting spin-orbit         ...  NO
Zero-field splitting spin-spin          ...  NO
Hyperfine couplings                     ...  NO (   0 nuclei)
Quadrupole couplings                    ...  NO (   0 nuclei)
Contact density                         ...  NO (   0 nuclei)

NMR properties:
Chemical shifts                         ...  NO (   0 nuclei)
Spin-rotation constants                 ...  NO (   0 nuclei)
Spin-spin couplings                     ...  NO (   0 nuclei,    0 pairs)

Choice of magnetic origin               ... GIAO
Position of magnetic origin             ...     0.000000     0.000000     0.000000

Properties with geometric perturbations:
SCF Hessian                             ...  NO
IR spectrum                             ...  NO
VCD spectrum                            ...  NO
X-ray spectroscopy properties:
SCF XES/XAS/RIXS spectra                ...  NO


-------------
DIPOLE MOMENT
-------------

Method             : SCF
Type of density    : Electron Density
Multiplicity       :   1
Irrep              :   0
Energy             :  -720.8577671885065001 Eh
Relativity type    : 
Basis              : AO
                                X                 Y                 Z
Electronic contribution:      2.064200990       0.816744732       3.855272017
Nuclear contribution   :     -3.214730796      -1.636820582      -5.824177883
                        -----------------------------------------
Total Dipole Moment    :     -1.150529806      -0.820075850      -1.968905866
                        -----------------------------------------
Magnitude (a.u.)       :      2.423392982
Magnitude (Debye)      :      6.159775435



--------------------
Rotational spectrum 
--------------------
 
Rotational constants in cm-1:             0.107909             0.062513             0.054605 
Rotational constants in MHz :          3235.034939          1874.104082          1637.028530 

Dipole components along the rotational axes: 
x,y,z [a.u.] :     0.103152    -2.411555     0.215856 
x,y,z [Debye]:     0.262192    -6.129687     0.548663 

 

Dipole moment calculation done in   0.2 sec 

Maximum memory used throughout the entire PROP-calculation: 267.7 MB

--------------------------------
SUGGESTED CITATIONS FOR THIS RUN
--------------------------------

Below you find a list of papers that are relevant to this ORCA run
We neither can nor want to force you to cite these papers, but we appreciate if you do
You receive ORCA, which is the product of decades of hard work by many enthusiastic individuals, for free
The only thing we kindly ask in return is that you cite our papers,
We deeply appreciate it, if you show your appreciation for ORCA by not just citing the generic ORCA reference.

Please note that relegating all ORCA citations to the supporting information does *not* help us.
SI sections are not indexed - citations you put there will not count into any citation statistics
But we need these citations in order to attract the funding resources that allow us to do what we are doing

Therefore, if you are a happy ORCA user, please consider citing a few of the papers listed below in the main body of your paper

In addition to the list printed below, the program has created the file pg1_frag.bibtex that contains the list in bibtex format
You can import this file easily into all common literature databanks and citation aid programs


List of essential papers. We consider these as the minimum necessary citations

  1. Neese,F.
     Software update: the ORCA program system, version 5.0
     WIRES Comput. Molec. Sci., 2022 12(1)e1606
     doi.org/10.1002/wcms.1606

List of papers to cite with high priority. The work reported in these papers was absolutely
necessary for this run to complete.
Our perspective: the developers of density functionals and basis sets usually get cited in chemistry papers
Good! But without the algorithms to do something with them, the functionals or basis sets would not do anything.
Hence, in our opinion, the algorithm design and method developments papers are equally worthy of getting cited

  1. Neese,F.
     An improvement of the resolution of the identity approximation for the formation of the Coulomb matrix
     J. Comp. Chem., 2003 24(14)1740-1747
     doi.org/10.1002/jcc.10318
  2. Neese,F.; Wennmohs,F.; Hansen,A.; Becker,U.
     Efficient, approximate and parallel Hartree-Fock and hybrid DFT calculations. A 'chain-of-spheres' algorithm for the Hartree-Fock exchange
     Chem. Phys., 2009 356(1-3)98-109
     doi.org/10.1016/j.chemphys.2008.10.036
  3. Kossmann,S.; Neese,F.
     Efficient Structure Optimization with Second-Order Many-Body Perturbation Theory: The RIJCOSX-MP2 Method
     J. Theo. Comp. Chem., 2010 6 2325-2338
     doi.org/10.1021/ct100199k
  4. Garcia-Rates,M.; Neese,F.
     Effect of the Solute Cavity on the Solvation Energy and its Derivatives within the Framework of the Gaussian Charge Scheme
     J. Comput. Chem., 2020 41 922-939
     doi.org/10.1002/jcc.26139
  5. Helmich-Paris,B.; de Souza,B.; Neese,F.; Izsák,R.
     An improved chain of spheres for exchange algorithm
     J. Chem. Phys., 2021 155 104109
     doi.org/doi: 10.1063/5.0058766.
  6. Neese,F.
     The SHARK Integral Generation and Digestion System
     J. Comp. Chem., 2022  1-16
     doi.org/10.1002/jcc.26942
  7. Caldeweyher,E.; Bannwarth,C.; Grimme,S.
     Extension of the D3 dispersion coefficient model
     J. Chem. Phys., 2017 147 034112
     doi.org/10.1063/1.4993215
  8. Caldeweyher,E.; Ehlert,S.; Hansen,A.; Neugebauer,H.; Spicher,S.; Bannwarth,C.; Grimme,S.
     A generally applicable atomic-charge dependent London dispersion correction
     J. Chem. Phys., 2019 150 154122
     doi.org/10.1063/1.5090222
  9. Caldeweyher,E.; Mewes,J.; Ehlert,S.; Grimme,S.
     Extension and evaluation of the D4 London-dispersion model for periodic systems
     Phys. Chem. Chem. Phys., 2020 22(16)8499-8512
     doi.org/10.1039/D0CP00502A
 10. Wittmann,L.; Gordiy,I.; Friede,M.; Helmich-Paris,B.; Grimme,S.; Hansen,A.; Bursch,M.
     Extension of the D3 and D4 London Dispersion Corrections to the full Actinides Series
     Phys. Chem. Chem. Phys., 2024 26(32)21379-21394
     doi.org/https://doi.org/10.1039/D4CP01514B 

List of suggested additional citations. These are papers that are important in the 'surrounding' of 
of this run, or papers that preceded the highly important papers. If you like your results we are grateful for a citation.

  1. Izsak,R.; Neese,F.
     An overlap fitted chain of spheres exchange method
     J. Chem. Phys., 2011 135 144105
     doi.org/10.1063/1.3646921
  2. Izsak,R.; Hansen,A.; Neese,F.
     The resolution of identity and chain of spheres approximations for the LPNO-CCSD singles Fock term
     Molec. Phys., 2012 110 2413-2417
     doi.org/10.1080/00268976.2012.687466
  3. Neese,F.
     The ORCA program system
     WIRES Comput. Molec. Sci., 2012 2(1)73-78
     doi.org/10.1002/wcms.81
  4. Izsak,R.; Neese,F.; Klopper,W.
     Robust fitting techniques in the chain of spheres approximation to the Fock exchange: The role of the complementary space
     J. Chem. Phys., 2013 139 
     doi.org/10.1063/1.4819264
  5. Neese,F.
     Software update: the ORCA program system, version 4.0
     WIRES Comput. Molec. Sci., 2018 8(1)1-6
     doi.org/10.1002/wcms.1327
  6. Neese,F.; Wennmohs,F.; Becker,U.; Riplinger,C.
     The ORCA quantum chemistry program package
     J. Chem. Phys., 2020 152 Art. No. L224108
     doi.org/10.1063/5.0004608

List of optional additional citations

  1. Neese,F.
     Approximate second-order SCF convergence for spin unrestricted wavefunctions
     Chem. Phys. Lett., 2000 325(1-3)93-98
     doi.org/10.1016/s0009-2614(00)00662-x

Timings for individual modules:

Sum of individual times          ...      556.116 sec (=   9.269 min)
Startup calculation              ...       11.240 sec (=   0.187 min)   2.0 %
SCF iterations                   ...      416.728 sec (=   6.945 min)  74.9 %
Property calculations            ...        1.499 sec (=   0.025 min)   0.3 %
MP2 module                       ...      126.650 sec (=   2.111 min)  22.8 %
                             ****ORCA TERMINATED NORMALLY****
TOTAL RUN TIME: 0 days 0 hours 9 minutes 16 seconds 870 msec
