
                                 *****************
                                 * O   R   C   A *
                                 *****************

                                            #,                                       
                                            ###                                      
                                            ####                                     
                                            #####                                    
                                            ######                                   
                                           ########,                                 
                                     ,,################,,,,,                         
                               ,,#################################,,                 
                          ,,##########################################,,             
                       ,#########################################, ''#####,          
                    ,#############################################,,   '####,        
                  ,##################################################,,,,####,       
                ,###########''''           ''''###############################       
              ,#####''   ,,,,##########,,,,          '''####'''          '####       
            ,##' ,,,,###########################,,,                        '##       
           ' ,,###''''                  '''############,,,                           
         ,,##''                                '''############,,,,        ,,,,,,###''
      ,#''                                            '''#######################'''  
     '                                                          ''''####''''         
             ,#######,   #######,   ,#######,      ##                                
            ,#'     '#,  ##    ##  ,#'     '#,    #''#        ,####,   ,####,        
            ##       ##  ##   ,#'  ##            #'  '#       #'       #'  '#        
            ##       ##  #######   ##           ,######,      #####,   #    #        
            '#,     ,#'  ##    ##  '#,     ,#' ,#      #,     #,   #   #,  ,#        
             '#######'   ##     ##  '#######'  #'      '#     '####' # '####'        



                #########################################################
                #                        -***-                          #
                #          Department of theory and spectroscopy        #
                #                                                       #
                #                      Frank Neese                      #
                #                                                       #
                #     Directorship, Architecture, Infrastructure        #
                #                    SHARK, DRIVERS                     #
                #        Core code/Algorithms in most modules           #
                #                                                       #
                #        Max Planck Institute fuer Kohlenforschung      #
                #                Kaiser Wilhelm Platz 1                 #
                #                 D-45470 Muelheim/Ruhr                 #
                #                      Germany                          #
                #                                                       #
                #                  All rights reserved                  #
                #                        -***-                          #
                #########################################################


                         Program Version 6.0.1  -  RELEASE   -


 With contributions from (in alphabetic order):
[Max-Planck-Institut fuer Kohlenforschung]                               
  Daniel Aravena         : Magnetic Suceptibility                        
  Michael Atanasov       : Ab Initio Ligand Field Theory (pilot matlab implementation)
  Alexander A. Auer      : GIAO ZORA, VPT2 properties, NMR spectrum      
  Ute Becker             : All parallelization in ORCA, NUMFREQ, NUMCALC 
  Giovanni Bistoni       : ED, misc. LED, open-shell LED, HFLD           
  Martin Brehm           : Molecular dynamics                            
  Dmytro Bykov           : pre 5.0 version of the SCF Hessian            
  Marcos Casanova-Páez   : Triplet and SCS-CIS(D). UHF-(DLPNO)-IP/EA/STEOM-CCSD. UHF-CVS-IP/STEOM-CCSD   
  Vijay G. Chilkuri      : MRCI spin determinant printing, contributions to CSF-ICE 
  Pauline Colinet        : FMM embedding                                 
  Dipayan Datta          : RHF DLPNO-CCSD density                        
  Achintya Kumar Dutta   : EOM-CC, STEOM-CC                              
  Nicolas Foglia         : Exact transition moments, OPA infrastructure, MCD improvements    
  Dmitry Ganyushin       : Spin-Orbit,Spin-Spin,Magnetic field MRCI      
  Miquel Garcia-Rates    : C-PCM and meta-GGA Hessian, CCSD/C-PCM, Gaussian charge scheme 
  Tiago L. C. Gouveia    : GS-ROHF, GS-ROCIS                             
  Yang Guo               : DLPNO-NEVPT2, F12-NEVPT2, CIM, IAO-localization        
  Andreas Hansen         : Spin unrestricted coupled pair/coupled cluster methods 
  Ingolf Harden          : AUTO-CI MPn and infrastructure                
  Benjamin Helmich-Paris : MC-RPA, TRAH-(SCF,CASSCF), AVAS, COSX integrals, SCF dyn. polar. 
  Lee Huntington         : MR-EOM, pCC                                   
  Robert Izsak           : Overlap fitted RIJCOSX, COSX-SCS-MP3, EOM     
  Riya Kayal             : Wick's Theorem for AUTO-CI, AUTO-CI UHF-CCSDT 
  Emily Kempfer          : AUTO-CI, RHF CISDT and CCSDT                  
  Christian Kollmar      : KDIIS, OOCD, Brueckner-CCSD(T), CCSD density, CASPT2, CASPT2-K, improved NEVPT2 
  Axel Koslowski         : Symmetry handling                             
  Simone Kossmann        : meta-GGA functionals, TD-DFT gradient, OOMP2, (MP2 Hessian; deprecated post 5.0) 
  Lucas Lang             : DCDCAS                                        
  Marvin Lechner         : AUTO-CI (C++ implementation), FIC-MRCC        
  Spencer Leger          : CASSCF response                               
  Dagmar Lenk            : GEPOL surface, SMD, ORCA-2-JSON               
  Dimitrios Liakos       : Extrapolation schemes; Compound Job, initial MDCI parallelization 
  Dimitrios Manganas     : Further ROCIS development; embedding schemes. LFT, Crystal Embedding 
  Dimitrios Pantazis     : SARC Basis sets                               
  Anastasios Papadopoulos: AUTO-CI, single reference methods and gradients 
  Taras Petrenko         : pre 6.0 DFT Hessian and TD-DFT gradient, (ASA, deprecated), ECA, 1-Electron XAS/XES, NRVS 
  Peter Pinski           : DLPNO-MP2, DLPNO-MP2 Gradient                 
  Christoph Reimann      : Effective Core Potentials                     
  Marius Retegan         : Local ZFS, SOC                                
  Christoph Riplinger    : Optimizer, TS searches, QM/MM, DLPNO-CCSD(T), (RO)-DLPNO pert. Triples 
  Michael Roemelt        : Original ROCIS implementation                 
  Masaaki Saitow         : Open-shell DLPNO-CCSD energy and density      
  Barbara Sandhoefer     : DKH picture change effects                    
  Kantharuban Sivalingam : CASSCF convergence/infrastructure, NEVPT2 and variants, FIC-MRCI 
  Bernardo de Souza      : ESD, SOC TD-DFT                               
  Georgi L. Stoychev     : AutoAux, RI-MP2 NMR, DLPNO-MP2 response, X2C  
  Van Anh Tran           : RI-MP2 g-tensors                              
  Willem Van den Heuvel  : Paramagnetic NMR                              
  Zikuan Wang            : NOTCH, Electric field optimization            
  Frank Wennmohs         : Technical directorship and infrastructure     
  Hang Xu                : AUTO-CI-Response properties                   
                                                                         
[FACCTs GmbH]                                                            
  Markus Bursch, Miquel Garcia-Rates, Christoph Riplinger, Bernardo de Souza, Georgi L. Stoychev 
                                                                 
  APM, Basis sets (HGBS, AHGBS, def-TZVP (Ac-Lr), def2-XVPD (La-Lu)), CI-OPT, improved COSX, DLPNO-Multilevel,           
  DOCKER, DRACO, updates on ESD, GOAT, IRC, LR-CPCM, MBIS, meta-GGA TD-DFT gradient, ML-optimized integration grids, 
  MM, NACMEs, nearIR, NEB, NEB-TS, NL-DFT gradient (VV10), 2- and 3-layer-ONIOM, interface openCOSMO-RS, QMMM,   
  Crystal-QMMM, SF, symmetry and pop. for TD-DFT, r2SCAN hybrids, SOLVATOR                                   
                                                                         
[Other institutions]                                                     
  V. Asgeirsson          : NEB                                           
  Christoph Bannwarth    : sTDA-DFT, sTD-DFT, PBEh-3c, B97-3c, D3        
  Sebastian Ehlert       : rSCAN, r2SCAN, r2SCAN-3c, D4, dhf basis sets  
  Marvin Friede          : D4 for Fr, Ra, Ac-Lr                          
  Lars Goerigk           : TD-DFT with DH, B97 family of functionals     
  Stefan Grimme          : VdW corrections, initial TS optimization, DFT functionals, gCP, sTDA/sTD-DF 
  Waldemar Hujo          : DFT-NL                                        
  H. Jonsson             : NEB                                           
  Holger Kruse           : gCP                                           
  Marcel Mueller         : wB97X-3c, vDZP basis set                      
  Hagen Neugebauer       : wr2SCAN                                       
  Tobias Risthaus        : range-separated hybrid DFT                    
  Lukas Wittmann         : regularized MP2, r2SCAN double-hybrids, wr2SCAN        
                                                                         
We gratefully acknowledge several colleagues who have allowed us to      
interface, adapt or use parts of their codes:                            
  Ed Valeev, F. Pavosevic, A. Kumar             : LibInt (2-el integral package), F12 methods 
  Garnet Chan, S. Sharma, J. Yang, R. Olivares  : DMRG                   
  Ulf Ekstrom                                   : XCFun DFT Library      
  Mihaly Kallay                                 : mrcc  (arbitrary order and MRCC methods)
  Frank Weinhold                                : gennbo (NPA and NBO analysis)           
  Simon Mueller                                 : openCOSMO-RS                            
  Christopher J. Cramer and Donald G. Truhlar   : smd solvation model                     
  S Lehtola, MJT Oliveira, MAL Marques          : LibXC Library                           
  Liviu Ungur et al                             : ANISO software                          


 Your calculation uses the libint2 library for the computation of 2-el integrals
 For citations please refer to: http://libint.valeyev.net

 Your ORCA version has been built with support for libXC version: 6.2.2
 For citations please refer to: https://libxc.gitlab.io

 This ORCA versions uses:
   CBLAS   interface :  Fast vector & matrix operations
   LAPACKE interface :  Fast linear algebra routines
   SCALAPACK package :  Parallel linear algebra routines
   Shared memory     :  Shared parallel matrices
   BLAS/LAPACK       :  OpenBLAS 0.3.27  USE64BITINT DYNAMIC_ARCH NO_AFFINITY Haswell SINGLE_THREADED
        Core in use  :  Haswell
   Copyright (c) 2011-2014, The OpenBLAS Project


NOTE: MaxCore=2000 MB was set to SCF,MP2,MDCI,CIPSI,MRCI and CIS
      => If you want to overwrite this, your respective input block should be placed after the MaxCore statement
Your calculation utilizes the atom-pairwise dispersion correction
based on EEQ partial charges (D4)


================================================================================

----- Orbital basis set information -----
Your calculation utilizes the basis: def2-QZVPPD
   F. Weigend and R. Ahlrichs, Phys. Chem. Chem. Phys. 7, 3297 (2005).
   D. Rappoport and F. Furche, J. Chem. Phys. 133, 134105 (2010)
   D. Rappoport, J. Chem. Phys. 155, 124102 (2021).

----- AuxJ basis set information -----
Your calculation utilizes the auxiliary basis: def2/J
   F. Weigend, Phys. Chem. Chem. Phys. 8, 1057 (2006).

----- AuxC basis set information -----
Your calculation utilizes the auxiliary basis: def2-QZVPPD/C
   A. Hellweg, C. Hattig, S. Hofener and W. Klopper, Theor. Chem. Acc. 117, 587 (2007).
  A. Hellweg and D. Rappoport; Phys. Chem. Chem. Phys. 17, 1010 (2015).

================================================================================
                                        WARNINGS
                       Please study these warnings very carefully!
================================================================================


WARNING: No MP2 level density has been requested!
         To calculate MP2 level properties use
         %mp2 Density relaxed end
         or
         %mp2 Density unrelaxed end
         Otherwise for double-hybrid DFT only the energy is correct!

WARNING: The frozen-core approximation is turned on by default for 
         the MP2 part of double-hybrid DFT.

================================================================================
                                       INPUT FILE
================================================================================
NAME = pg1_frag.inp
|  1> # ------------------------------------
|  2> # RH_POPG (R2 & H3 ghosted); ion pair-pi
|  3> # ------------------------------------
|  4> ! SP revDSD-PBEP86-D4/2021 def2-QZVPPD RIJCOSX def2/J TightSCF CPCM
|  5> %basis
|  6>   basis   "def2-QZVPPD"
|  7>   aux     "def2/J"           # RI-J (for SCF/RIJCOSX)
|  8>   auxC    "def2-QZVPPD/C"    # required for RI-MP2 (AuxC)
|  9> end
| 10> %pal
| 11>     nprocs 10
| 12> end
| 13> %MaxCore 2000
| 14> %cpcm 
| 15>    epsilon 3 
| 16> end
| 17> *xyz -1 1
| 18> # POPG1
| 19> C     -1.25600      3.08800       2.88600
| 20> C      0.26300      3.32700       7.70100
| 21> O     -1.11600      3.51300       4.22100
| 22> O     -0.79200      1.18700       5.29400
| 23> O      1.24900      2.72400       4.90800
| 24> O     -0.58000      3.41300       6.57700
| 25> P     -0.22900      2.59700       5.21900
| 26> H     -1.87500      3.80000       2.34100
| 27> H     -0.27300      3.02900       2.41900
| 28> H     -1.72800      2.10600       2.86500
| 29> H     -0.14000      3.94100       8.50600
| 30> H      0.32300      2.28900       8.03100
| 31> H      1.25900      3.68100       7.43600
| 32> # Arg2 ghosted
| 33> C:     4.30800     -0.36900       1.52000
| 34> N:     3.95800     -0.33000       2.92400
| 35> H:     3.88300     -1.24600       3.36900
| 36> C:     3.18000      0.58800       3.51900
| 37> N:     3.05800      1.83100       3.06000
| 38> H:     3.67100      2.19200       2.34500
| 39> H:     2.40100      2.44200       3.56600
| 40> N:     2.54400      0.25200       4.64100
| 41> H:     2.36800     -0.73700       4.81100
| 42> H:     1.95600      0.97500       5.06800
| 43> H:     4.36600      0.64800       1.13100
| 44> H:     3.54800     -0.92500       0.97200
| 45> H:     5.27400     -0.85900       1.40000
| 46> # His3 ghosted
| 47> C:    -1.43400     -1.19700       2.67600
| 48> N:     0.27800      0.24600       1.47600
| 49> N:    -0.90600      1.03900      -0.20400
| 50> H:    -1.14800      1.57700      -1.02800
| 51> C:    -0.98500     -0.29300       1.53300
| 52> C:     0.28900      1.03900       0.42800
| 53> H:     1.13400      1.63700       0.08700
| 54> C:    -1.73500      0.18800       0.48500
| 55> H:    -2.76500      0.00700       0.18700
| 56> H:    -2.46600     -1.50400       2.51300
| 57> H:    -0.79400     -2.07800       2.71400
| 58> H:    -1.36100     -0.65400       3.61900
| 59> *
| 60> 
| 61> 
| 62> 
| 63>                          ****END OF INPUT****
================================================================================

                       ****************************
                       * Single Point Calculation *
                       ****************************

---------------------------------
CARTESIAN COORDINATES (ANGSTROEM)
---------------------------------
  C     -1.256000    3.088000    2.886000
  C      0.263000    3.327000    7.701000
  O     -1.116000    3.513000    4.221000
  O     -0.792000    1.187000    5.294000
  O      1.249000    2.724000    4.908000
  O     -0.580000    3.413000    6.577000
  P     -0.229000    2.597000    5.219000
  H     -1.875000    3.800000    2.341000
  H     -0.273000    3.029000    2.419000
  H     -1.728000    2.106000    2.865000
  H     -0.140000    3.941000    8.506000
  H      0.323000    2.289000    8.031000
  H      1.259000    3.681000    7.436000
  C      4.308000   -0.369000    1.520000
  N      3.958000   -0.330000    2.924000
  H      3.883000   -1.246000    3.369000
  C      3.180000    0.588000    3.519000
  N      3.058000    1.831000    3.060000
  H      3.671000    2.192000    2.345000
  H      2.401000    2.442000    3.566000
  N      2.544000    0.252000    4.641000
  H      2.368000   -0.737000    4.811000
  H      1.956000    0.975000    5.068000
  H      4.366000    0.648000    1.131000
  H      3.548000   -0.925000    0.972000
  H      5.274000   -0.859000    1.400000
  C     -1.434000   -1.197000    2.676000
  N      0.278000    0.246000    1.476000
  N     -0.906000    1.039000   -0.204000
  H     -1.148000    1.577000   -1.028000
  C     -0.985000   -0.293000    1.533000
  C      0.289000    1.039000    0.428000
  H      1.134000    1.637000    0.087000
  C     -1.735000    0.188000    0.485000
  H     -2.765000    0.007000    0.187000
  H     -2.466000   -1.504000    2.513000
  H     -0.794000   -2.078000    2.714000
  H     -1.361000   -0.654000    3.619000

----------------------------
CARTESIAN COORDINATES (A.U.)
----------------------------
  NO LB      ZA    FRAG     MASS         X           Y           Z
   0 C     6.0000    0    12.011   -2.373496    5.835474    5.453750
   1 C     6.0000    0    12.011    0.496998    6.287119   14.552781
   2 O     8.0000    0    15.999   -2.108934    6.638608    7.976534
   3 O     8.0000    0    15.999   -1.496663    2.243105   10.004210
   4 O     8.0000    0    15.999    2.360268    5.147614    9.274776
   5 O     8.0000    0    15.999   -1.096041    6.449635   12.428729
   6 P    15.0000    0    30.974   -0.432747    4.907619    9.862481
   7 H     1.0000    0     1.008   -3.543237    7.180959    4.423849
   8 H     1.0000    0     1.008   -0.515895    5.723980    4.571248
   9 H     1.0000    0     1.008   -3.265447    3.979763    5.414065
  10 H     1.0000    0     1.008   -0.264562    7.447411   16.074010
  11 H     1.0000    0     1.008    0.610382    4.325583   15.176391
  12 H     1.0000    0     1.008    2.379165    6.956082   14.052004
  13 C     0.0000    0     0.000    8.140940   -0.697309    2.872384
  14 N     0.0000    0     0.000    7.479536   -0.623610    5.525559
  15 H     0.0000    0     0.000    7.337807   -2.354599    6.366487
  16 C     0.0000    0     0.000    6.009329    1.111159    6.649946
  17 N     0.0000    0     0.000    5.778783    3.460089    5.782562
  18 H     0.0000    0     0.000    6.937185    4.142280    4.431408
  19 H     0.0000    0     0.000    4.537232    4.614711    6.738763
  20 N     0.0000    0     0.000    4.807463    0.476211    8.770219
  21 H     0.0000    0     0.000    4.474871   -1.392728    9.091472
  22 H     0.0000    0     0.000    3.696304    1.842483    9.577132
  23 H     0.0000    0     0.000    8.250544    1.224543    2.137280
  24 H     0.0000    0     0.000    6.704748   -1.747997    1.836814
  25 H     0.0000    0     0.000    9.966416   -1.623275    2.645617
  26 C     0.0000    0     0.000   -2.709867   -2.262002    5.056907
  27 N     0.0000    0     0.000    0.525344    0.464873    2.789236
  28 N     0.0000    0     0.000   -1.712092    1.963425   -0.385504
  29 H     0.0000    0     0.000   -2.169406    2.980098   -1.942638
  30 C     0.0000    0     0.000   -1.861380   -0.553690    2.896950
  31 C     0.0000    0     0.000    0.546131    1.963425    0.808803
  32 H     0.0000    0     0.000    2.142949    3.093482    0.164406
  33 C     0.0000    0     0.000   -3.278675    0.355269    0.916517
  34 H     0.0000    0     0.000   -5.225093    0.013228    0.353379
  35 H     0.0000    0     0.000   -4.660065   -2.842148    4.748882
  36 H     0.0000    0     0.000   -1.500443   -3.926851    5.128717
  37 H     0.0000    0     0.000   -2.571917   -1.235881    6.838919

--------------------------------
INTERNAL COORDINATES (ANGSTROEM)
--------------------------------
 C      0   0   0     0.000000000000     0.00000000     0.00000000
 C      1   0   0     5.054572880076     0.00000000     0.00000000
 O      1   2   0     1.407995028400    18.67132463     0.00000000
 O      3   1   2     2.581972308140    97.73452977   326.16132629
 O      4   3   1     2.583998065015    60.07880033   102.34230838
 O      2   1   3     1.407629567749    20.32378076    35.80594638
 P      5   4   3     1.515695879786    31.71129267    32.09493168
 H      1   2   6     1.089554955016   128.04854352    42.51192240
 H      1   2   6     1.089889443935    98.02977362   165.06198648
 H      1   2   6     1.089747218395   101.01870999   276.82146315
 H      2   1   3     1.089692617209   128.25976835    10.57131939
 H      2   1   3     1.090845543604   105.05317628   141.20986129
 H      2   1   3     1.089750888965    93.34667227   252.34248415
 C      5   4   3     5.513861985941   101.32232118   240.57338228
 N     14   5   4     1.447493350589    41.81962639   285.39236399
 H     15  14   5     1.021129766484   114.60043876   146.39028081
 C     15  14   5     1.342398227055   126.04918748   358.49694821
 N     17  15  14     1.330644204887   122.61916505   332.57694134
 H     18  17  15     1.008620344828   121.54351664   348.60949676
 H     18  17  15     1.030051455025   116.30398443   177.21337834
 N     17  15  14     1.332770047683   118.50952509   155.06972019
 H     21  17  15     1.018821377868   117.88087206   336.62034162
 H     21  17  15     1.025086337827   116.52514856   180.18856895
 H     14   5   4     1.090400843727    74.06931422   138.29786348
 H     14   5   4     1.089513652966   102.02415815    31.20354340
 H     14   5   4     1.089796311244   144.25631533   239.60672548
 C     10   1   2     3.321440350210   149.19120764   280.25844899
 N     27  10   1     2.540313563322    61.42212975   328.57987110
 N     28  27  10     2.202976395697   101.68371537   287.96714259
 H     29  28  27     1.013402190643   159.97129425   175.72911101
 C     28  27  10     1.374386772346    30.49469994   283.74585159
 C     28  27  10     1.314257965546   136.47448387   290.02353530
 H     32  28  27     1.089912840552   125.94650997   176.22051101
 C     29  28  27     1.373376496085    73.66713830   357.43425975
 H     34  29  28     1.087412065410   122.50735605   179.70088295
 H     27  10   1     1.088963727587   101.82868571   191.43853723
 H     27  10   1     1.089589372195   148.65825336    12.56898962
 H     27  10   1     1.090608545721    57.42524080    85.76248671

---------------------------
INTERNAL COORDINATES (A.U.)
---------------------------
 C      0   0   0     0.000000000000     0.00000000     0.00000000
 C      1   0   0     9.551758467289     0.00000000     0.00000000
 O      1   2   0     2.660725001599    18.67132463     0.00000000
 O      3   1   2     4.879220547752    97.73452977   326.16132629
 O      4   3   1     4.883048673460    60.07880033   102.34230838
 O      2   1   3     2.660034381055    20.32378076    35.80594638
 P      5   4   3     2.864250115108    31.71129267    32.09493168
 H      1   2   6     2.058960472837   128.04854352    42.51192240
 H      1   2   6     2.059592565288    98.02977362   165.06198648
 H      1   2   6     2.059323797969   101.01870999   276.82146315
 H      2   1   3     2.059220616681   128.25976835    10.57131939
 H      2   1   3     2.061399331819   105.05317628   141.20986129
 H      2   1   3     2.059330734341    93.34667227   252.34248415
 C      5   4   3    10.419689093667   101.32232118   240.57338228
 N     14   5   4     2.735366013286    41.81962639   285.39236399
 H     15  14   5     1.929655605850   114.60043876   146.39028081
 C     15  14   5     2.536765011795   126.04918748   358.49694821
 N     17  15  14     2.514553128926   122.61916505   332.57694134
 H     18  17  15     1.906016224825   121.54351664   348.60949676
 H     18  17  15     1.946515153845   116.30398443   177.21337834
 N     17  15  14     2.518570389613   118.50952509   155.06972019
 H     21  17  15     1.925293383554   117.88087206   336.62034162
 H     21  17  15     1.937132442118   116.52514856   180.18856895
 H     14   5   4     2.060558970840    74.06931422   138.29786348
 H     14   5   4     2.058882423274   102.02415815    31.20354340
 H     14   5   4     2.059416570008   144.25631533   239.60672548
 C     10   1   2     6.276612632052   149.19120764   280.25844899
 N     27  10   1     4.800496928965    61.42212975   328.57987110
 N     28  27  10     4.163022067361   101.68371537   287.96714259
 H     29  28  27     1.915052603831   159.97129425   175.72911101
 C     28  27  10     2.597214601818    30.49469994   283.74585159
 C     28  27  10     2.483587624206   136.47448387   290.02353530
 H     32  28  27     2.059636778487   125.94650997   176.22051101
 C     29  28  27     2.595305456366    73.66713830   357.43425975
 H     34  29  28     2.054910998347   122.50735605   179.70088295
 H     27  10   1     2.057843214913   101.82868571   191.43853723
 H     27  10   1     2.059025511879   148.65825336    12.56898962
 H     27  10   1     2.060951470727    57.42524080    85.76248671

---------------------
BASIS SET INFORMATION
---------------------
There are 5 groups of distinct atoms

 Group   1 Type C   : 16s8p4d2f1g contracted to 8s4p4d2f1g pattern {82111111/5111/1111/11/1}
 Group   2 Type O   : 16s9p4d2f1g contracted to 8s5p4d2f1g pattern {82111111/51111/1111/11/1}
 Group   3 Type P   : 21s14p5d2f1g contracted to 10s6p5d2f1g pattern {10311111111/821111/11111/11/1}
 Group   4 Type H   : 7s4p2d1f contracted to 4s4p2d1f pattern {4111/1111/11/1}
 Group   5 Type N   : 16s8p4d2f1g contracted to 8s4p4d2f1g pattern {82111111/5111/1111/11/1}

Atom   0C    basis set group =>   1
Atom   1C    basis set group =>   1
Atom   2O    basis set group =>   2
Atom   3O    basis set group =>   2
Atom   4O    basis set group =>   2
Atom   5O    basis set group =>   2
Atom   6P    basis set group =>   3
Atom   7H    basis set group =>   4
Atom   8H    basis set group =>   4
Atom   9H    basis set group =>   4
Atom  10H    basis set group =>   4
Atom  11H    basis set group =>   4
Atom  12H    basis set group =>   4
Atom  13C    basis set group =>   1
Atom  14N    basis set group =>   5
Atom  15H    basis set group =>   4
Atom  16C    basis set group =>   1
Atom  17N    basis set group =>   5
Atom  18H    basis set group =>   4
Atom  19H    basis set group =>   4
Atom  20N    basis set group =>   5
Atom  21H    basis set group =>   4
Atom  22H    basis set group =>   4
Atom  23H    basis set group =>   4
Atom  24H    basis set group =>   4
Atom  25H    basis set group =>   4
Atom  26C    basis set group =>   1
Atom  27N    basis set group =>   5
Atom  28N    basis set group =>   5
Atom  29H    basis set group =>   4
Atom  30C    basis set group =>   1
Atom  31C    basis set group =>   1
Atom  32H    basis set group =>   4
Atom  33C    basis set group =>   1
Atom  34H    basis set group =>   4
Atom  35H    basis set group =>   4
Atom  36H    basis set group =>   4
Atom  37H    basis set group =>   4
---------------------------------
AUXILIARY/J BASIS SET INFORMATION
---------------------------------
There are 5 groups of distinct atoms

 Group   1 Type C   : 12s5p4d2f1g contracted to 6s4p3d1f1g pattern {711111/2111/211/2/1}
 Group   2 Type O   : 12s5p4d2f1g contracted to 6s4p3d1f1g pattern {711111/2111/211/2/1}
 Group   3 Type P   : 14s5p5d2f1g contracted to 8s4p3d1f1g pattern {71111111/2111/311/2/1}
 Group   4 Type H   : 5s2p1d contracted to 3s1p1d pattern {311/2/1}
 Group   5 Type N   : 12s5p4d2f1g contracted to 6s4p3d1f1g pattern {711111/2111/211/2/1}

Atom   0C    basis set group =>   1
Atom   1C    basis set group =>   1
Atom   2O    basis set group =>   2
Atom   3O    basis set group =>   2
Atom   4O    basis set group =>   2
Atom   5O    basis set group =>   2
Atom   6P    basis set group =>   3
Atom   7H    basis set group =>   4
Atom   8H    basis set group =>   4
Atom   9H    basis set group =>   4
Atom  10H    basis set group =>   4
Atom  11H    basis set group =>   4
Atom  12H    basis set group =>   4
Atom  13C    basis set group =>   1
Atom  14N    basis set group =>   5
Atom  15H    basis set group =>   4
Atom  16C    basis set group =>   1
Atom  17N    basis set group =>   5
Atom  18H    basis set group =>   4
Atom  19H    basis set group =>   4
Atom  20N    basis set group =>   5
Atom  21H    basis set group =>   4
Atom  22H    basis set group =>   4
Atom  23H    basis set group =>   4
Atom  24H    basis set group =>   4
Atom  25H    basis set group =>   4
Atom  26C    basis set group =>   1
Atom  27N    basis set group =>   5
Atom  28N    basis set group =>   5
Atom  29H    basis set group =>   4
Atom  30C    basis set group =>   1
Atom  31C    basis set group =>   1
Atom  32H    basis set group =>   4
Atom  33C    basis set group =>   1
Atom  34H    basis set group =>   4
Atom  35H    basis set group =>   4
Atom  36H    basis set group =>   4
Atom  37H    basis set group =>   4
---------------------------------
AUXILIARY/C BASIS SET INFORMATION
---------------------------------
There are 5 groups of distinct atoms

 Group   1 Type C   : 10s9p8d6f3g1h contracted to 10s9p8d6f3g1h pattern {1111111111/111111111/11111111/111111/111/1}
 Group   2 Type O   : 10s9p8d6f3g1h contracted to 10s9p8d6f3g1h pattern {1111111111/111111111/11111111/111111/111/1}
 Group   3 Type P   : 13s11p10d7f3g1h contracted to 13s11p10d7f3g1h pattern {1111111111111/11111111111/1111111111/1111111/111/1}
 Group   4 Type H   : 7s5p4d2f1g contracted to 7s5p4d2f1g pattern {1111111/11111/1111/11/1}
 Group   5 Type N   : 10s9p8d6f3g1h contracted to 10s9p8d6f3g1h pattern {1111111111/111111111/11111111/111111/111/1}

Atom   0C    basis set group =>   1
Atom   1C    basis set group =>   1
Atom   2O    basis set group =>   2
Atom   3O    basis set group =>   2
Atom   4O    basis set group =>   2
Atom   5O    basis set group =>   2
Atom   6P    basis set group =>   3
Atom   7H    basis set group =>   4
Atom   8H    basis set group =>   4
Atom   9H    basis set group =>   4
Atom  10H    basis set group =>   4
Atom  11H    basis set group =>   4
Atom  12H    basis set group =>   4
Atom  13C    basis set group =>   1
Atom  14N    basis set group =>   5
Atom  15H    basis set group =>   4
Atom  16C    basis set group =>   1
Atom  17N    basis set group =>   5
Atom  18H    basis set group =>   4
Atom  19H    basis set group =>   4
Atom  20N    basis set group =>   5
Atom  21H    basis set group =>   4
Atom  22H    basis set group =>   4
Atom  23H    basis set group =>   4
Atom  24H    basis set group =>   4
Atom  25H    basis set group =>   4
Atom  26C    basis set group =>   1
Atom  27N    basis set group =>   5
Atom  28N    basis set group =>   5
Atom  29H    basis set group =>   4
Atom  30C    basis set group =>   1
Atom  31C    basis set group =>   1
Atom  32H    basis set group =>   4
Atom  33C    basis set group =>   1
Atom  34H    basis set group =>   4
Atom  35H    basis set group =>   4
Atom  36H    basis set group =>   4
Atom  37H    basis set group =>   4


           ************************************************************
           *        Program running with 10 parallel MPI-processes    *
           *              working on a common directory               *
           ************************************************************
------------------------------------------------------------------------------
                             ORCA STARTUP CALCULATIONS
                           -- RI-GTO INTEGRALS CHOSEN --
------------------------------------------------------------------------------
------------------------------------------------------------------------------
                   ___                                                        
                  /   \      - P O W E R E D   B Y -                         
                 /     \                                                     
                 |  |  |   _    _      __       _____    __    __             
                 |  |  |  | |  | |    /  \     |  _  \  |  |  /  |          
                  \  \/   | |  | |   /    \    | | | |  |  | /  /          
                 / \  \   | |__| |  /  /\  \   | |_| |  |  |/  /          
                |  |  |   |  __  | /  /__\  \  |    /   |      \           
                |  |  |   | |  | | |   __   |  |    \   |  |\   \          
                \     /   | |  | | |  |  |  |  | |\  \  |  | \   \       
                 \___/    |_|  |_| |__|  |__|  |_| \__\ |__|  \__/        
                                                                              
                      - O R C A' S   B I G   F R I E N D -                    
                                      &                                       
                       - I N T E G R A L  F E E D E R -                       
                                                                              
 v1 FN, 2020, v2 2021, v3 2022-2024                                           
------------------------------------------------------------------------------


----------------------
SHARK INTEGRAL PACKAGE
----------------------

Number of atoms                             ...     38
Number of basis functions                   ...   1819
Number of shells                            ...    571
Maximum angular momentum                    ...      4
Integral batch strategy                     ... SHARK/LIBINT Hybrid
RI-J (if used) integral strategy            ... SPLIT-RIJ (Revised 2003 algorithm where possible)
Printlevel                                  ...      1
Contraction scheme used                     ... SEGMENTED contraction
Prescreening option                         ... SCHWARTZ
   Thresh                                   ... 2.500e-11
   Tcut                                     ... 2.500e-12
   Tpresel                                  ... 2.500e-12 
Coulomb Range Separation                    ... NOT USED
Exchange Range Separation                   ... NOT USED
Multipole approximations                    ... NOT USED
Finite Nucleus Model                        ... NOT USED
CABS basis                                  ... NOT available
Auxiliary Coulomb fitting basis             ... AVAILABLE
   # of basis functions in Aux-J            ...   1104
   # of shells in Aux-J                     ...    372
   Maximum angular momentum in Aux-J        ...      4
Auxiliary J/K fitting basis                 ... NOT available
Auxiliary Correlation fitting basis         ... AVAILABLE
   # of basis functions in Aux-C            ...   4152
   # of shells in Aux-C                     ...   1054
   Maximum angular momentum in Aux-C        ...      5
Auxiliary 'external' fitting basis          ... NOT available

Checking pre-screening integrals            ... done (  0.0 sec) Dimension = 571
Check shell pair data                       ... done (  0.0 sec)
Shell pair information
Shell pair cut-off parameter TPreSel        ...   2.5e-12
Total number of shell pairs                 ...    163306
Shell pairs after pre-screening             ...    111201
Total number of primitive shell pairs       ...    365945
Primitive shell pairs kept                  ...    182318
          la=0 lb=0:  17039 shell pairs
          la=1 lb=0:  26066 shell pairs
          la=1 lb=1:   9937 shell pairs
          la=2 lb=0:  17012 shell pairs
          la=2 lb=1:  13162 shell pairs
          la=2 lb=2:   4346 shell pairs
          la=3 lb=0:   7242 shell pairs
          la=3 lb=1:   5919 shell pairs
          la=3 lb=2:   3666 shell pairs
          la=3 lb=3:    758 shell pairs
          la=4 lb=0:   2359 shell pairs
          la=4 lb=1:   1923 shell pairs
          la=4 lb=2:   1205 shell pairs
          la=4 lb=3:    478 shell pairs
          la=4 lb=4:     89 shell pairs

Calculating one electron integrals          ... done (  0.2 sec)
Calculating RI/J V-Matrix + Cholesky decomp.... done (  0.0 sec)
Calculating RI/C V-Matrix + Cholesky decomp.... done (  0.7 sec)
Calculating Nuclear repulsion               ... done (  0.0 sec) ENN=    435.676189693273 Eh

Diagonalization of the overlap matrix:
Smallest eigenvalue                        ... 9.197e-08
Time for diagonalization                   ...    0.504 sec
Threshold for overlap eigenvalues          ... 1.000e-07
Number of eigenvalues below threshold      ... 1
Smallest eigenvalue above threshold        ... 1.078e-07

IMPORTANT:
Smallest eigenvalue of S below the DiffSThresh (1.000e-06) while
Thresh>1e-12 and/or TCut>1e-13! In order to avoid SCF convergence issues,
Thresh will be set to at least 1e-12 and TCut to at least 1e-13.
This can be turned off by adding %SCF DiffSThresh -1 END to the input.

Time for construction of square roots      ...    0.324 sec
Total time needed                          ...    0.852 sec

-------------------
DFT GRID GENERATION
-------------------

General Integration Accuracy     IntAcc      ... 4.388
Radial Grid Type                 RadialGrid  ... OptM3 with GC (2021)
Angular Grid (max. ang.)         AngularGrid ... 4 (Lebedev-302)
Angular grid pruning method      GridPruning ... 4 (adaptive)
Weight generation scheme         WeightScheme... mBecke (2022)
Basis function cutoff            BFCut       ... 1.0000e-11
Integration weight cutoff        WCut        ... 1.0000e-14
Partially contracted basis set               ... off
Rotationally invariant grid construction     ... off
Angular grids for H and He will be reduced by one unit
Diffuse basis detected: some atoms will have their outermost
                        angular grid increased by 1.

Total number of grid points                  ...   181379
Total number of batches                      ...     2853
Average number of points per batch           ...       63
Average number of grid points per atom       ...     4773

--------------------
COSX GRID GENERATION
--------------------

GRIDX 1
-------
General Integration Accuracy     IntAcc      ... 3.816
Radial Grid Type                 RadialGrid  ... OptM3 with GC (2021)
Angular Grid (max. ang.)         AngularGrid ... 1 (Lebedev-50)
Angular grid pruning method      GridPruning ... 4 (adaptive)
Weight generation scheme         WeightScheme... mBecke (2022)
Basis function cutoff            BFCut       ... 1.0000e-11
Integration weight cutoff        WCut        ... 1.0000e-14
Partially contracted basis set               ... on
Rotationally invariant grid construction     ... off
Angular grids for H and He will be reduced by one unit
Diffuse basis detected: some atoms will have their outermost
                        angular grid increased by 1.

Total number of grid points                  ...    23686
Total number of batches                      ...      206
Average number of points per batch           ...      114
Average number of grid points per atom       ...      623
UseSFitting                                  ... on

GRIDX 2
-------
General Integration Accuracy     IntAcc      ... 4.020
Radial Grid Type                 RadialGrid  ... OptM3 with GC (2021)
Angular Grid (max. ang.)         AngularGrid ... 2 (Lebedev-110)
Angular grid pruning method      GridPruning ... 4 (adaptive)
Weight generation scheme         WeightScheme... mBecke (2022)
Basis function cutoff            BFCut       ... 1.0000e-11
Integration weight cutoff        WCut        ... 1.0000e-14
Partially contracted basis set               ... on
Rotationally invariant grid construction     ... off
Angular grids for H and He will be reduced by one unit
Diffuse basis detected: some atoms will have their outermost
                        angular grid increased by 1.

Total number of grid points                  ...    52861
Total number of batches                      ...      435
Average number of points per batch           ...      121
Average number of grid points per atom       ...     1391
UseSFitting                                  ... on

GRIDX 3
-------
General Integration Accuracy     IntAcc      ... 4.338
Radial Grid Type                 RadialGrid  ... OptM3 with GC (2021)
Angular Grid (max. ang.)         AngularGrid ... 3 (Lebedev-194)
Angular grid pruning method      GridPruning ... 4 (adaptive)
Weight generation scheme         WeightScheme... mBecke (2022)
Basis function cutoff            BFCut       ... 1.0000e-11
Integration weight cutoff        WCut        ... 1.0000e-14
Partially contracted basis set               ... on
Rotationally invariant grid construction     ... off
Angular grids for H and He will be reduced by one unit
Diffuse basis detected: some atoms will have their outermost
                        angular grid increased by 1.

Total number of grid points                  ...   117660
Total number of batches                      ...      937
Average number of points per batch           ...      125
Average number of grid points per atom       ...     3096
UseSFitting                                  ... on
Initializing property integral containers    ... done (  0.0 sec)

SHARK setup successfully completed in  10.1 seconds

Maximum memory used throughout the entire STARTUP-calculation: 264.1 MB


           ************************************************************
           *        Program running with 10 parallel MPI-processes    *
           *              working on a common directory               *
           ************************************************************
-------------------------------------------------------------------------------
                                 ORCA GUESS
                   Start orbitals & Density for SCF / CASSCF
-------------------------------------------------------------------------------

------------
SCF SETTINGS
------------
Hamiltonian:
 Density Functional     Method          .... DFT(GTOs)
 Exchange Functional    Exchange        .... PBE
   PBE kappa parameter   XKappa         ....  0.804000
   PBE mue parameter    XMuePBE         ....  0.219520
 Correlation Functional Correlation     .... P86
 LDA part of GGA corr.  LDAOpt          .... VWN-5
 Gradients option       PostSCFGGA      .... off
 Hybrid DFT is turned on
   Fraction HF Exchange ScalHFX         ....  0.690000
   Scaling of DF-GGA-X  ScalDFX         ....  0.310000
   Scaling of DF-GGA-C  ScalDFC         ....  0.422400
   Scaling of DF-LDA-C  ScalLDAC        ....  0.422400
   Perturbative correction              ....  1.000000
 RI-approximation to the Coulomb term is turned on
   Number of AuxJ basis functions       .... 1104
   RIJ-COSX (HFX calculated with COS-X)).... on


General Settings:
 Integral files         IntName         .... pg1_frag
 Hartree-Fock type      HFTyp           .... RHF
 Total Charge           Charge          ....   -1
 Multiplicity           Mult            ....    1
 Number of Electrons    NEL             ....   66
 Basis Dimension        Dim             .... 1819
 Nuclear Repulsion      ENuc            ....    435.6761896933 Eh

Convergence Acceleration:
 AO-DIIS                CNVDIIS         .... on
   Start iteration      DIISMaxIt       ....    12
   Startup error        DIISStart       ....  0.200000
   # of expansion vecs  DIISMaxEq       ....     5
   Bias factor          DIISBfac        ....   1.050
   Max. coefficient     DIISMaxC        ....  10.000
 MO-DIIS                CNVKDIIS        .... off
 Trust-Rad. Augm. Hess. CNVTRAH         .... auto
   Auto Start mean grad. ratio tolernc. ....  1.125000
   Auto Start start iteration           ....    50
   Auto Start num. interpolation iter.  ....    10
   Max. Number of Micro iterations      ....    24
   Max. Number of Macro iterations      .... Maxiter - #DIIS iter
   Number of Davidson start vectors     ....     2
   Converg. threshold    (grad. norm)   ....   1.000e-05
   Grad. Scal. Fac. for Micro threshold ....   0.100
   Minimum threshold for Micro iter.    ....   1.000e-02
   NR start threshold (gradient norm)   ....   1.000e-04
   Initial trust radius                 ....   0.400
   Minimum AH scaling param. (alpha)    ....   1.000
   Maximum AH scaling param. (alpha)    .... 1000.000
   Quad. conv. algorithm                .... NR
   White noise on init. David. guess    .... on
   Maximum white noise                  ....   0.010
   Pseudo random numbers                .... off
   Inactive MOs                         .... canonical
   Orbital update algorithm             .... Taylor
   Preconditioner                       .... Diag
   Full preconditioner red. dimension   ....   250
 SOSCF                  CNVSOSCF        .... on
   Start iteration      SOSCFMaxIt      ....   150
   Startup grad/error   SOSCFStart      ....  0.003300
   Hessian update       SOSCFHessUp     .... L-BFGS
 Level Shifting         CNVShift        .... on
   Level shift para.    LevelShift      ....    0.2500
   Turn off err/grad.   ShiftErr        ....    0.0010
 Zerner damping         CNVZerner       .... off
 Static damping         CNVDamp         .... on
   Fraction old density DampFac         ....    0.7000
   Max. Damping (<1)    DampMax         ....    0.9800
   Min. Damping (>=0)   DampMin         ....    0.0000
   Turn off err/grad.   DampErr         ....    0.1000

SCF Procedure:
 Maximum # iterations   MaxIter         ....   125
 SCF integral mode      SCFMode         .... Direct
   Integral package                     .... SHARK and LIBINT hybrid scheme
 Reset frequency        DirectResetFreq ....    20
 Integral Threshold     Thresh          ....  1.000e-12 Eh
 Primitive CutOff       TCut            ....  1.000e-13 Eh

Convergence Tolerance:
 Convergence Check Mode ConvCheckMode   .... Total+1el-Energy
 Convergence forced     ConvForced      .... 0
 Energy Change          TolE            ....  1.000e-08 Eh
 1-El. energy change                    ....  1.000e-05 Eh
 Orbital Gradient       TolG            ....  1.000e-05
 Orbital Rotation angle TolX            ....  1.000e-05
 DIIS Error             TolErr          ....  5.000e-07

------------------------------
INITIAL GUESS: MODEL POTENTIAL
------------------------------
Loading Hartree-Fock densities                     ... done
Calculating cut-offs                               ... done
Initializing the effective Hamiltonian             ... done
Setting up the integral package (SHARK)            ... done
Starting the Coulomb interaction                   ... done (   0.7 sec)
Making the grid                                    ... done (   0.3 sec)
Mapping shells                                     ... done
Starting the XC term evaluation                    ... done (   1.3 sec)
  promolecular density results
     # of electrons  =     64.999818114
     EX              =    -67.181268735
     EC              =      0.054040869
     EX+EC           =    -67.127227866
Transforming the Hamiltonian                       ... done (   0.3 sec)
Diagonalizing the Hamiltonian                      ... done (   0.5 sec)
Back transforming the eigenvectors                 ... done (   0.2 sec)
Now organizing SCF variables                       ... done
                      ------------------
                      INITIAL GUESS DONE (   3.6 sec)
                      ------------------
             **** ENERGY FILE WAS UPDATED (pg1_frag.en.tmp) ****
Finished Guess after   5.1 sec
Maximum memory used throughout the entire GUESS-calculation: 255.7 MB


           ************************************************************
           *        Program running with 10 parallel MPI-processes    *
           *              working on a common directory               *
           ************************************************************

-------------------------------------------------------------------------------------------
                                      ORCA LEAN-SCF
                              memory conserving SCF solver
-------------------------------------------------------------------------------------------

--------------------
CPCM SOLVATION MODEL
--------------------
CPCM parameters:
  Epsilon                                         ...       3.0000
  Refrac                                          ...       1.3300
  Rsolv                                           ...       1.3000
  Surface type                                    ... GAUSSIAN VDW
  Discretization scheme                           ... Constant charge density
    Threshold for H atoms                         ...       5.0000 (charges/Ang^2)
    Threshold for non-H atoms                     ...       5.0000 (charges/Ang^2)
  Epsilon function type                           ...         CPCM
Solvent:                                          ... CUSTOM
Radii:
  Scheme                                          ... Element-dependent radii
  Radius for C  used is    3.8550 Bohr (=   2.0400 Ang.)
  Radius for O  used is    3.4469 Bohr (=   1.8240 Ang.)
  Radius for P  used is    4.0818 Bohr (=   2.1600 Ang.)
  Radius for H  used is    2.4944 Bohr (=   1.3200 Ang.)
  Radius for N  used is    3.5149 Bohr (=   1.8600 Ang.)
Calculating surface                               ...        done! (  0.0s)
Cavity surface points                             ...         3362
Cavity Volume                                     ...    2251.6812
Cavity Surface-area                               ...    1253.4622
Calculating surface distance matrix               ...        done! (  0.1s)
Performing Cholesky decomposition & store         ...        done! (  0.3s)
Overall time for CPCM initialization              ...                 0.3s

----------------------------------------D-I-I-S--------------------------------------------
Iteration    Energy (Eh)           Delta-E    RMSDP     MaxDP     DIISErr   Damp  Time(sec)
-------------------------------------------------------------------------------------------
               ***  Starting incremental Fock matrix formation  ***
    1    -720.5135940630102596     0.00e+00  6.65e-03  4.19e+00  3.87e-01  0.700  44.0
    2    -720.6575142933168081    -1.44e-01  5.53e-03  3.45e+00  1.98e-01  0.700  26.0
                               ***Turning on AO-DIIS***
    3    -720.7255251552096524    -6.80e-02  2.88e-03  1.45e+00  8.34e-02  0.700  25.8
    4    -720.7664832191501318    -4.10e-02  7.11e-03  4.24e+00  5.57e-02  0.000  24.5
    5    -720.8564457769148248    -9.00e-02  1.57e-03  9.84e-01  5.69e-03  0.000  24.7
                              *** Initializing SOSCF ***
---------------------------------------S-O-S-C-F--------------------------------------
Iteration    Energy (Eh)           Delta-E    RMSDP     MaxDP     MaxGrad    Time(sec)
--------------------------------------------------------------------------------------
    6    -720.8566115716473632    -1.66e-04  2.38e-04  1.67e-01  2.09e-03    23.4
               *** Restarting incremental Fock matrix formation ***
    7    -720.8566083007206089     3.27e-06  1.58e-02  8.69e+00  2.29e-04    45.6
    8    -720.8566168079983072    -8.51e-06  2.08e-03  1.27e+00  4.62e-05    41.2
    9    -720.8566165785769044     2.29e-07  1.41e-03  8.66e-01  4.97e-05    35.5
   10    -720.8566173747958601    -7.96e-07  1.62e-04  9.72e-02  4.75e-06    33.6
   11    -720.8566174179918562    -4.32e-08  1.67e-05  5.44e-03  2.33e-06    28.3
                  *** Gradient check signals convergence ***

               *****************************************************
               *                     SUCCESS                       *
               *           SCF CONVERGED AFTER  11 CYCLES          *
               *****************************************************

Recomputing exchange energy using gridx3       ... done (   72.640 sec)
Old exchange energy                            :    -47.322839871 Eh
New exchange energy                            :    -47.322848943 Eh
Exchange energy change after final integration :     -0.000009072 Eh
Total energy after final integration           :   -720.856626490 Eh
             **** ENERGY FILE WAS UPDATED (pg1_frag.en.tmp) ****

----------------
TOTAL SCF ENERGY
----------------

Total Energy       :       -720.85662649001392 Eh          -19615.50604 eV

Components:
Nuclear Repulsion  :        435.67618969327253 Eh           11855.35184 eV
Electronic Energy  :      -1156.46059916660897 Eh          -31468.89275 eV
One Electron Energy:      -1873.52860058436499 Eh          -50981.30506 eV
Two Electron Energy:        717.06800141775602 Eh           19512.41231 eV
CPCM Dielectric    :         -0.07220794465552 Eh              -1.96488 eV

Virial components:
Potential Energy   :      -1440.33918256214702 Eh          -39193.62172 eV
Kinetic Energy     :        719.48255607213321 Eh           19578.11568 eV
Virial Ratio       :          2.00190980365859

DFT components:
N(Alpha)           :       33.000076435345 electrons
N(Beta)            :       33.000076435345 electrons
N(Total)           :       66.000152870690 electrons
E(X)               :      -21.186759109493 Eh       
E(C)               :       -1.087344293065 Eh       
E(XC)              :      -22.274103402558 Eh       

CPCM Solvation Model Properties:
Surface-charge          :          0.98593415113227
Corrected charge        :          1.00000000000000
Outlying charge corr.   :          0.00000733246637 Eh               0.00020 eV
Free-energy (cav+disp)  :  This term is not implemented in the current solvation scheme

---------------
SCF CONVERGENCE
---------------

  Last Energy change         ...    4.3196e-08  Tolerance :   1.0000e-08
  Last MAX-Density change    ...    5.4397e-03  Tolerance :   1.0000e-07
  Last RMS-Density change    ...    1.6696e-05  Tolerance :   5.0000e-09
  Last DIIS Error            ...    2.0882e-03  Tolerance :   5.0000e-07
  Last Orbital Gradient      ...    2.3294e-06  Tolerance :   1.0000e-05
  Last Orbital Rotation      ...    2.4243e-06  Tolerance :   1.0000e-05


----------------
ORBITAL ENERGIES
----------------

  NO   OCC          E(Eh)            E(eV) 
   0   2.0000     -78.847849     -2145.5591 
   1   2.0000     -19.954875      -542.9998 
   2   2.0000     -19.950763      -542.8879 
   3   2.0000     -19.864103      -540.5297 
   4   2.0000     -19.862488      -540.4858 
   5   2.0000     -10.811153      -294.1864 
   6   2.0000     -10.810338      -294.1642 
   7   2.0000      -7.127723      -193.9552 
   8   2.0000      -5.126051      -139.4869 
   9   2.0000      -5.124911      -139.4559 
  10   2.0000      -5.122261      -139.3838 
  11   2.0000      -1.223840       -33.3024 
  12   2.0000      -1.178571       -32.0705 
  13   2.0000      -1.084871       -29.5208 
  14   2.0000      -1.042821       -28.3766 
  15   2.0000      -0.816709       -22.2238 
  16   2.0000      -0.779571       -21.2132 
  17   2.0000      -0.621377       -16.9085 
  18   2.0000      -0.565802       -15.3963 
  19   2.0000      -0.528952       -14.3935 
  20   2.0000      -0.527924       -14.3656 
  21   2.0000      -0.515900       -14.0383 
  22   2.0000      -0.484961       -13.1965 
  23   2.0000      -0.472305       -12.8521 
  24   2.0000      -0.422587       -11.4992 
  25   2.0000      -0.397617       -10.8197 
  26   2.0000      -0.389780       -10.6065 
  27   2.0000      -0.352924        -9.6035 
  28   2.0000      -0.349805        -9.5187 
  29   2.0000      -0.335726        -9.1356 
  30   2.0000      -0.322901        -8.7866 
  31   2.0000      -0.297076        -8.0838 
  32   2.0000      -0.279864        -7.6155 
  33   0.0000       0.052665         1.4331 
  34   0.0000       0.066521         1.8101 
  35   0.0000       0.076386         2.0786 
  36   0.0000       0.079863         2.1732 
  37   0.0000       0.091489         2.4895 
  38   0.0000       0.094560         2.5731 
  39   0.0000       0.095150         2.5892 
  40   0.0000       0.104120         2.8333 
  41   0.0000       0.106701         2.9035 
  42   0.0000       0.112200         3.0531 
  43   0.0000       0.119384         3.2486 
*Only the first 10 virtual orbitals were printed.

                    ********************************
                    * MULLIKEN POPULATION ANALYSIS *
                    ********************************

-----------------------
MULLIKEN ATOMIC CHARGES
-----------------------
   0 C :   -0.154046
   1 C :   -0.360960
   2 O :   -0.510113
   3 O :   -0.780959
   4 O :   -0.743947
   5 O :   -0.604775
   6 P :    1.032843
   7 H :    0.124035
   8 H :    0.166489
   9 H :    0.183175
  10 H :    0.091110
  11 H :    0.314211
  12 H :    0.202970
  13 C :    0.003136
  14 N :    0.000811
  15 H :   -0.000546
  16 C :    0.004255
  17 N :   -0.000210
  18 H :    0.004976
  19 H :   -0.016516
  20 N :    0.003299
  21 H :    0.004620
  22 H :    0.042853
  23 H :   -0.002593
  24 H :    0.000353
  25 H :    0.000548
  26 C :    0.014376
  27 N :    0.006638
  28 N :   -0.001520
  29 H :   -0.001426
  30 C :   -0.004922
  31 C :   -0.012641
  32 H :    0.002007
  33 C :    0.009150
  34 H :    0.002435
  35 H :   -0.006571
  36 H :    0.000006
  37 H :   -0.012549
Sum of atomic charges:   -1.0000000

--------------------------------
MULLIKEN REDUCED ORBITAL CHARGES
--------------------------------
  0 C s       :     3.227729  s :     3.227729
      pz      :     0.538925  p :     2.796654
      px      :     1.205894
      py      :     1.051836
      dz2     :     0.008556  d :     0.112483
      dxz     :     0.035838
      dyz     :     0.035411
      dx2y2   :     0.016507
      dxy     :     0.016171
      f0      :     0.004031  f :     0.015497
      f+1     :     0.003965
      f-1     :     0.003521
      f+2     :     0.000965
      f-2     :     0.001566
      f+3     :     0.001295
      f-3     :     0.000155
      g0      :     0.000479  g :     0.001682
      g+1     :     0.000313
      g-1     :     0.000382
      g+2     :     0.000155
      g-2     :     0.000174
      g+3     :     0.000077
      g-3     :     0.000030
      g+4     :     0.000030
      g-4     :     0.000043

  1 C s       :     3.239157  s :     3.239157
      pz      :     0.805204  p :     2.964580
      px      :     0.961420
      py      :     1.197956
      dz2     :     0.021805  d :     0.140589
      dxz     :     0.026063
      dyz     :     0.040854
      dx2y2   :     0.034216
      dxy     :     0.017651
      f0      :     0.002881  f :     0.014930
      f+1     :     0.002643
      f-1     :     0.001982
      f+2     :     0.002384
      f-2     :     0.003125
      f+3     :     0.000617
      f-3     :     0.001298
      g0      :     0.000203  g :     0.001704
      g+1     :     0.000404
      g-1     :     0.000091
      g+2     :     0.000310
      g-2     :     0.000282
      g+3     :     0.000148
      g-3     :     0.000167
      g+4     :     0.000037
      g-4     :     0.000061

  2 O s       :     3.839853  s :     3.839853
      pz      :     1.281297  p :     4.659452
      px      :     1.702617
      py      :     1.675539
      dz2     :    -0.000917  d :     0.006668
      dxz     :     0.003055
      dyz     :     0.004048
      dx2y2   :     0.000748
      dxy     :    -0.000265
      f0      :     0.001143  f :     0.003982
      f+1     :     0.000857
      f-1     :     0.000681
      f+2     :     0.000412
      f-2     :     0.000438
      f+3     :     0.000223
      f-3     :     0.000226
      g0      :     0.000037  g :     0.000158
      g+1     :     0.000020
      g-1     :     0.000045
      g+2     :     0.000013
      g-2     :     0.000019
      g+3     :     0.000008
      g-3     :     0.000009
      g+4     :     0.000003
      g-4     :     0.000003

  3 O s       :     3.859153  s :     3.859153
      pz      :     1.731509  p :     4.902005
      px      :     1.724569
      py      :     1.445927
      dz2     :     0.000369  d :     0.017555
      dxz     :     0.000191
      dyz     :     0.006976
      dx2y2   :     0.004554
      dxy     :     0.005464
      f0      :     0.000264  f :     0.002176
      f+1     :     0.000063
      f-1     :     0.000233
      f+2     :     0.000312
      f-2     :     0.000238
      f+3     :     0.000447
      f-3     :     0.000619
      g0      :     0.000004  g :     0.000071
      g+1     :     0.000002
      g-1     :     0.000010
      g+2     :     0.000006
      g-2     :     0.000005
      g+3     :     0.000008
      g-3     :     0.000004
      g+4     :     0.000018
      g-4     :     0.000015

  4 O s       :     3.866198  s :     3.866198
      pz      :     1.699535  p :     4.866009
      px      :     1.384660
      py      :     1.781813
      dz2     :    -0.002012  d :     0.009477
      dxz     :     0.004455
      dyz     :     0.001521
      dx2y2   :     0.000388
      dxy     :     0.005125
      f0      :     0.000213  f :     0.002190
      f+1     :     0.000350
      f-1     :     0.000034
      f+2     :     0.000447
      f-2     :     0.000132
      f+3     :     0.000421
      f-3     :     0.000593
      g0      :     0.000006  g :     0.000073
      g+1     :     0.000010
      g-1     :     0.000001
      g+2     :     0.000010
      g-2     :     0.000002
      g+3     :     0.000010
      g-3     :     0.000005
      g+4     :     0.000014
      g-4     :     0.000016

  5 O s       :     3.895591  s :     3.895591
      pz      :     1.308188  p :     4.699629
      px      :     1.649636
      py      :     1.741804
      dz2     :    -0.005589  d :     0.005322
      dxz     :     0.005400
      dyz     :     0.004926
      dx2y2   :     0.000156
      dxy     :     0.000429
      f0      :     0.000868  f :     0.004076
      f+1     :     0.001066
      f-1     :     0.000605
      f+2     :     0.000721
      f-2     :     0.000517
      f+3     :     0.000143
      f-3     :     0.000157
      g0      :     0.000019  g :     0.000157
      g+1     :     0.000034
      g-1     :     0.000013
      g+2     :     0.000039
      g-2     :     0.000022
      g+3     :     0.000017
      g-3     :     0.000012
      g+4     :     0.000002
      g-4     :     0.000001

  6 P s       :     5.175484  s :     5.175484
      pz      :     2.643562  p :     7.838805
      px      :     2.617423
      py      :     2.577821
      dz2     :     0.103817  d :     0.767564
      dxz     :     0.163443
      dyz     :     0.156674
      dx2y2   :     0.178759
      dxy     :     0.164872
      f0      :     0.021956  f :     0.159736
      f+1     :     0.017636
      f-1     :     0.010788
      f+2     :     0.034686
      f-2     :     0.014542
      f+3     :     0.018408
      f-3     :     0.041719
      g0      :     0.001983  g :     0.025568
      g+1     :     0.002370
      g-1     :     0.002824
      g+2     :     0.002940
      g-2     :     0.002627
      g+3     :     0.003543
      g-3     :     0.002260
      g+4     :     0.003622
      g-4     :     0.003398

  7 H s       :     0.847359  s :     0.847359
      pz      :     0.002584  p :     0.025312
      px      :     0.021709
      py      :     0.001018
      dz2     :     0.001043  d :     0.003083
      dxz     :     0.000453
      dyz     :     0.000342
      dx2y2   :     0.000840
      dxy     :     0.000406
      f0      :     0.000016  f :     0.000211
      f+1     :     0.000038
      f-1     :     0.000033
      f+2     :     0.000044
      f-2     :     0.000014
      f+3     :     0.000015
      f-3     :     0.000051

  8 H s       :     0.764059  s :     0.764059
      pz      :     0.017568  p :     0.065425
      px      :     0.039075
      py      :     0.008782
      dz2     :     0.001021  d :     0.003798
      dxz     :     0.000733
      dyz     :     0.000309
      dx2y2   :     0.000362
      dxy     :     0.001374
      f0      :     0.000013  f :     0.000229
      f+1     :     0.000068
      f-1     :     0.000005
      f+2     :     0.000013
      f-2     :     0.000043
      f+3     :     0.000011
      f-3     :     0.000077

  9 H s       :     0.766445  s :     0.766445
      pz      :     0.015938  p :     0.046270
      px      :     0.002620
      py      :     0.027712
      dz2     :     0.000259  d :     0.003876
      dxz     :     0.000335
      dyz     :     0.001315
      dx2y2   :     0.001138
      dxy     :     0.000829
      f0      :     0.000031  f :     0.000235
      f+1     :     0.000011
      f-1     :     0.000018
      f+2     :     0.000020
      f-2     :     0.000021
      f+3     :     0.000022
      f-3     :     0.000111

 10 H s       :     0.830507  s :     0.830507
      pz      :     0.037345  p :     0.074994
      px      :     0.008486
      py      :     0.029163
      dz2     :     0.001129  d :     0.003179
      dxz     :     0.000745
      dyz     :     0.000453
      dx2y2   :     0.000568
      dxy     :     0.000284
      f0      :     0.000045  f :     0.000210
      f+1     :     0.000030
      f-1     :     0.000032
      f+2     :     0.000061
      f-2     :     0.000016
      f+3     :     0.000011
      f-3     :     0.000014

 11 H s       :     0.656387  s :     0.656387
      pz      :    -0.003988  p :     0.025576
      px      :     0.006222
      py      :     0.023342
      dz2     :     0.000451  d :     0.003607
      dxz     :     0.000342
      dyz     :     0.001165
      dx2y2   :     0.000431
      dxy     :     0.001217
      f0      :     0.000014  f :     0.000218
      f+1     :     0.000004
      f-1     :     0.000047
      f+2     :     0.000037
      f-2     :     0.000035
      f+3     :     0.000066
      f-3     :     0.000015

 12 H s       :     0.757929  s :     0.757929
      pz      :     0.012418  p :     0.035127
      px      :     0.020340
      py      :     0.002369
      dz2     :     0.000306  d :     0.003747
      dxz     :     0.001297
      dyz     :     0.000234
      dx2y2   :     0.000927
      dxy     :     0.000984
      f0      :     0.000024  f :     0.000227
      f+1     :     0.000024
      f-1     :     0.000005
      f+2     :     0.000045
      f-2     :     0.000017
      f+3     :     0.000076
      f-3     :     0.000036

 13 C s       :    -0.000040  s :    -0.000040
      pz      :    -0.000142  p :    -0.003076
      px      :    -0.000979
      py      :    -0.001954
      dz2     :    -0.000011  d :    -0.000020
      dxz     :    -0.000137
      dyz     :     0.000047
      dx2y2   :     0.000015
      dxy     :     0.000066
      f0      :     0.000000  f :     0.000000
      f+1     :    -0.000000
      f-1     :    -0.000000
      f+2     :     0.000000
      f-2     :     0.000000
      f+3     :     0.000000
      f-3     :    -0.000000
      g0      :     0.000000  g :    -0.000000
      g+1     :    -0.000000
      g-1     :    -0.000000
      g+2     :    -0.000000
      g-2     :    -0.000000
      g+3     :    -0.000000
      g-3     :    -0.000000
      g+4     :     0.000000
      g-4     :     0.000000

 14 N s       :    -0.000226  s :    -0.000226
      pz      :    -0.000121  p :    -0.000296
      px      :    -0.000144
      py      :    -0.000031
      dz2     :    -0.000163  d :    -0.000289
      dxz     :     0.000054
      dyz     :    -0.000069
      dx2y2   :     0.000002
      dxy     :    -0.000114
      f0      :     0.000000  f :     0.000000
      f+1     :     0.000000
      f-1     :     0.000000
      f+2     :    -0.000000
      f-2     :     0.000000
      f+3     :    -0.000000
      f-3     :     0.000000
      g0      :    -0.000000  g :    -0.000000
      g+1     :    -0.000000
      g-1     :    -0.000000
      g+2     :    -0.000000
      g-2     :    -0.000000
      g+3     :    -0.000000
      g-3     :    -0.000000
      g+4     :    -0.000000
      g-4     :    -0.000000

 15 H s       :     0.000310  s :     0.000310
      pz      :     0.000040  p :     0.000237
      px      :     0.000080
      py      :     0.000117
      dz2     :     0.000000  d :     0.000000
      dxz     :    -0.000000
      dyz     :     0.000000
      dx2y2   :    -0.000000
      dxy     :     0.000000
      f0      :     0.000000  f :    -0.000000
      f+1     :    -0.000000
      f-1     :    -0.000000
      f+2     :     0.000000
      f-2     :    -0.000000
      f+3     :     0.000000
      f-3     :    -0.000000

 16 C s       :     0.002356  s :     0.002356
      pz      :    -0.001915  p :    -0.003983
      px      :     0.003833
      py      :    -0.005901
      dz2     :    -0.001824  d :    -0.002631
      dxz     :    -0.000013
      dyz     :     0.000298
      dx2y2   :     0.001333
      dxy     :    -0.002424
      f0      :     0.000002  f :     0.000003
      f+1     :    -0.000001
      f-1     :    -0.000002
      f+2     :    -0.000002
      f-2     :     0.000002
      f+3     :     0.000000
      f-3     :     0.000004
      g0      :     0.000000  g :    -0.000000
      g+1     :    -0.000000
      g-1     :    -0.000000
      g+2     :    -0.000000
      g-2     :    -0.000000
      g+3     :     0.000000
      g-3     :    -0.000000
      g+4     :     0.000000
      g-4     :    -0.000000

 17 N s       :     0.011602  s :     0.011602
      pz      :    -0.002397  p :    -0.010584
      px      :    -0.006148
      py      :    -0.002039
      dz2     :     0.000586  d :    -0.000805
      dxz     :     0.000323
      dyz     :     0.000169
      dx2y2   :    -0.001803
      dxy     :    -0.000081
      f0      :     0.000002  f :    -0.000002
      f+1     :    -0.000002
      f-1     :    -0.000001
      f+2     :    -0.000002
      f-2     :     0.000001
      f+3     :    -0.000000
      f-3     :     0.000001
      g0      :    -0.000000  g :    -0.000000
      g+1     :     0.000000
      g-1     :     0.000000
      g+2     :     0.000000
      g-2     :    -0.000000
      g+3     :    -0.000000
      g-3     :    -0.000000
      g+4     :     0.000000
      g-4     :    -0.000000

 18 H s       :    -0.003797  s :    -0.003797
      pz      :    -0.000398  p :    -0.001177
      px      :    -0.000538
      py      :    -0.000241
      dz2     :    -0.000000  d :    -0.000002
      dxz     :    -0.000001
      dyz     :    -0.000000
      dx2y2   :    -0.000001
      dxy     :    -0.000000
      f0      :     0.000000  f :    -0.000000
      f+1     :     0.000000
      f-1     :     0.000000
      f+2     :    -0.000000
      f-2     :    -0.000000
      f+3     :     0.000000
      f-3     :     0.000000

 19 H s       :     0.022885  s :     0.022885
      pz      :    -0.001740  p :    -0.006207
      px      :    -0.005246
      py      :     0.000779
      dz2     :    -0.000035  d :    -0.000172
      dxz     :    -0.000085
      dyz     :     0.000001
      dx2y2   :    -0.000027
      dxy     :    -0.000025
      f0      :     0.000001  f :     0.000010
      f+1     :     0.000003
      f-1     :     0.000001
      f+2     :     0.000002
      f-2     :     0.000002
      f+3     :     0.000000
      f-3     :     0.000001

 20 N s       :     0.003403  s :     0.003403
      pz      :    -0.004522  p :    -0.007006
      px      :    -0.000803
      py      :    -0.001681
      dz2     :     0.000892  d :     0.000310
      dxz     :     0.000847
      dyz     :    -0.000289
      dx2y2   :    -0.000046
      dxy     :    -0.001095
      f0      :    -0.000001  f :    -0.000006
      f+1     :    -0.000002
      f-1     :    -0.000006
      f+2     :    -0.000001
      f-2     :     0.000002
      f+3     :    -0.000000
      f-3     :     0.000001
      g0      :    -0.000000  g :    -0.000000
      g+1     :    -0.000000
      g-1     :     0.000000
      g+2     :     0.000000
      g-2     :    -0.000000
      g+3     :    -0.000000
      g-3     :     0.000000
      g+4     :    -0.000000
      g-4     :     0.000000

 21 H s       :    -0.003291  s :    -0.003291
      pz      :    -0.000412  p :    -0.001331
      px      :     0.000373
      py      :    -0.001293
      dz2     :     0.000000  d :     0.000002
      dxz     :     0.000000
      dyz     :     0.000000
      dx2y2   :     0.000001
      dxy     :     0.000001
      f0      :     0.000000  f :     0.000000
      f+1     :     0.000000
      f-1     :     0.000000
      f+2     :     0.000000
      f-2     :    -0.000000
      f+3     :     0.000000
      f-3     :     0.000000

 22 H s       :    -0.016283  s :    -0.016283
      pz      :    -0.013321  p :    -0.026223
      px      :    -0.009549
      py      :    -0.003353
      dz2     :    -0.000077  d :    -0.000351
      dxz     :    -0.000003
      dyz     :    -0.000022
      dx2y2   :    -0.000034
      dxy     :    -0.000216
      f0      :    -0.000000  f :     0.000005
      f+1     :     0.000000
      f-1     :     0.000002
      f+2     :     0.000000
      f-2     :    -0.000000
      f+3     :     0.000002
      f-3     :    -0.000000

 23 H s       :     0.002315  s :     0.002315
      pz      :     0.000413  p :     0.000278
      px      :     0.000115
      py      :    -0.000250
      dz2     :     0.000000  d :    -0.000000
      dxz     :    -0.000000
      dyz     :     0.000000
      dx2y2   :     0.000000
      dxy     :    -0.000000
      f0      :    -0.000000  f :    -0.000000
      f+1     :    -0.000000
      f-1     :    -0.000000
      f+2     :     0.000000
      f-2     :    -0.000000
      f+3     :    -0.000000
      f-3     :    -0.000000

 24 H s       :    -0.000368  s :    -0.000368
      pz      :    -0.000004  p :     0.000015
      px      :     0.000084
      py      :    -0.000065
      dz2     :    -0.000000  d :    -0.000000
      dxz     :    -0.000000
      dyz     :     0.000000
      dx2y2   :    -0.000000
      dxy     :    -0.000000
      f0      :     0.000000  f :    -0.000000
      f+1     :    -0.000000
      f-1     :    -0.000000
      f+2     :     0.000000
      f-2     :    -0.000000
      f+3     :    -0.000000
      f-3     :    -0.000000

 25 H s       :    -0.000400  s :    -0.000400
      pz      :    -0.000019  p :    -0.000148
      px      :    -0.000094
      py      :    -0.000036
      dz2     :    -0.000000  d :    -0.000000
      dxz     :    -0.000000
      dyz     :    -0.000000
      dx2y2   :    -0.000000
      dxy     :    -0.000000
      f0      :    -0.000000  f :    -0.000000
      f+1     :    -0.000000
      f-1     :    -0.000000
      f+2     :     0.000000
      f-2     :     0.000000
      f+3     :    -0.000000
      f-3     :    -0.000000

 26 C s       :    -0.000200  s :    -0.000200
      pz      :    -0.014202  p :    -0.015587
      px      :    -0.001308
      py      :    -0.000077
      dz2     :     0.000236  d :     0.001411
      dxz     :     0.001523
      dyz     :    -0.002053
      dx2y2   :     0.001086
      dxy     :     0.000619
      f0      :    -0.000000  f :    -0.000001
      f+1     :    -0.000000
      f-1     :    -0.000001
      f+2     :    -0.000000
      f-2     :     0.000001
      f+3     :     0.000000
      f-3     :    -0.000000
      g0      :    -0.000000  g :    -0.000000
      g+1     :     0.000000
      g-1     :     0.000000
      g+2     :    -0.000000
      g-2     :    -0.000000
      g+3     :    -0.000000
      g-3     :    -0.000000
      g+4     :     0.000000
      g-4     :     0.000000

 27 N s       :    -0.001405  s :    -0.001405
      pz      :    -0.000646  p :    -0.003320
      px      :    -0.001101
      py      :    -0.001574
      dz2     :     0.000026  d :    -0.001913
      dxz     :    -0.000104
      dyz     :    -0.000501
      dx2y2   :    -0.001593
      dxy     :     0.000258
      f0      :     0.000000  f :     0.000001
      f+1     :     0.000000
      f-1     :    -0.000000
      f+2     :     0.000000
      f-2     :     0.000000
      f+3     :    -0.000000
      f-3     :     0.000000
      g0      :    -0.000000  g :     0.000000
      g+1     :     0.000000
      g-1     :     0.000000
      g+2     :    -0.000000
      g-2     :    -0.000000
      g+3     :     0.000000
      g-3     :     0.000000
      g+4     :    -0.000000
      g-4     :    -0.000000

 28 N s       :    -0.000509  s :    -0.000509
      pz      :     0.001985  p :     0.001800
      px      :     0.000219
      py      :    -0.000405
      dz2     :     0.000292  d :     0.000229
      dxz     :    -0.000009
      dyz     :     0.000137
      dx2y2   :    -0.000176
      dxy     :    -0.000014
      f0      :    -0.000000  f :    -0.000000
      f+1     :     0.000000
      f-1     :    -0.000000
      f+2     :    -0.000000
      f-2     :    -0.000000
      f+3     :     0.000000
      f-3     :     0.000000
      g0      :    -0.000000  g :    -0.000000
      g+1     :    -0.000000
      g-1     :    -0.000000
      g+2     :    -0.000000
      g-2     :    -0.000000
      g+3     :    -0.000000
      g-3     :    -0.000000
      g+4     :    -0.000000
      g-4     :    -0.000000

 29 H s       :     0.001048  s :     0.001048
      pz      :     0.000429  p :     0.000378
      px      :     0.000037
      py      :    -0.000087
      dz2     :     0.000000  d :     0.000000
      dxz     :    -0.000000
      dyz     :     0.000000
      dx2y2   :    -0.000000
      dxy     :     0.000000
      f0      :     0.000000  f :     0.000000
      f+1     :    -0.000000
      f-1     :     0.000000
      f+2     :    -0.000000
      f-2     :     0.000000
      f+3     :    -0.000000
      f-3     :    -0.000000

 30 C s       :     0.003025  s :     0.003025
      pz      :    -0.010382  p :    -0.001961
      px      :     0.007797
      py      :     0.000624
      dz2     :     0.001146  d :     0.003861
      dxz     :    -0.000840
      dyz     :     0.000105
      dx2y2   :     0.001791
      dxy     :     0.001659
      f0      :    -0.000002  f :    -0.000004
      f+1     :    -0.000000
      f-1     :    -0.000000
      f+2     :    -0.000002
      f-2     :    -0.000001
      f+3     :     0.000000
      f-3     :     0.000001
      g0      :    -0.000000  g :    -0.000000
      g+1     :    -0.000000
      g-1     :    -0.000000
      g+2     :     0.000000
      g-2     :    -0.000000
      g+3     :    -0.000000
      g-3     :     0.000000
      g+4     :     0.000000
      g-4     :    -0.000000

 31 C s       :    -0.002922  s :    -0.002922
      pz      :     0.004563  p :     0.010953
      px      :     0.006060
      py      :     0.000330
      dz2     :     0.000661  d :     0.004616
      dxz     :     0.001225
      dyz     :     0.002143
      dx2y2   :    -0.000307
      dxy     :     0.000894
      f0      :    -0.000000  f :    -0.000004
      f+1     :     0.000000
      f-1     :    -0.000002
      f+2     :    -0.000001
      f-2     :    -0.000001
      f+3     :     0.000000
      f-3     :    -0.000001
      g0      :    -0.000000  g :    -0.000000
      g+1     :     0.000000
      g-1     :    -0.000000
      g+2     :    -0.000000
      g-2     :    -0.000000
      g+3     :     0.000000
      g-3     :    -0.000000
      g+4     :    -0.000000
      g-4     :    -0.000000

 32 H s       :    -0.001710  s :    -0.001710
[...]

 37 H s       :     0.006734  s :     0.006734
      pz      :     0.014183  p :     0.034730
      px      :     0.003477
      py      :     0.017070
      dz2     :     0.000028  d :     0.000432
      dxz     :     0.000031
      dyz     :     0.000248
      dx2y2   :     0.000077
      dxy     :     0.000047
      f0      :     0.000002  f :     0.000016
      f+1     :     0.000001
      f-1     :     0.000004
      f+2     :     0.000005
      f-2     :     0.000003
      f+3     :     0.000001
      f-3     :     0.000001



                      *****************************
                      * MAYER POPULATION ANALYSIS *
                      *****************************

  NA   - Mulliken gross atomic population
  ZA   - Total nuclear charge
  QA   - Mulliken gross atomic charge
  VA   - Mayer's total valence
  BVA  - Mayer's bonded valence
  FA   - Mayer's free valence

  ATOM       NA         ZA         QA         VA         BVA        FA
  0 C      6.1540     6.0000    -0.1540     3.6304     3.6304    -0.0000
  1 C      6.3610     6.0000    -0.3610     3.6619     3.6619     0.0000
  2 O      8.5101     8.0000    -0.5101     1.4233     1.4233    -0.0000
  3 O      8.7810     8.0000    -0.7810     1.5509     1.5509    -0.0000
  4 O      8.7439     8.0000    -0.7439     1.4763     1.4763    -0.0000
  5 O      8.6048     8.0000    -0.6048     1.3653     1.3653    -0.0000
  6 P     13.9672    15.0000     1.0328     5.2069     5.2069    -0.0000
  7 H      0.8760     1.0000     0.1240     0.9377     0.9377    -0.0000
  8 H      0.8335     1.0000     0.1665     1.0907     1.0907    -0.0000
  9 H      0.8168     1.0000     0.1832     0.9943     0.9943    -0.0000
 10 H      0.9089     1.0000     0.0911     1.2458     1.2458     0.0000
 11 H      0.6858     1.0000     0.3142     0.8675     0.8675     0.0000
 12 H      0.7970     1.0000     0.2030     0.9798     0.9798     0.0000
 13 C     -0.0031     0.0000     0.0031    -0.0063    -0.0063     0.0000
 14 N     -0.0008     0.0000     0.0008    -0.0016    -0.0016     0.0000
 15 H      0.0005     0.0000    -0.0005     0.0011     0.0011    -0.0000
 16 C     -0.0043     0.0000     0.0043    -0.0086    -0.0086    -0.0000
 17 N      0.0002     0.0000    -0.0002     0.0004     0.0004     0.0000
 18 H     -0.0050     0.0000     0.0050    -0.0100    -0.0100     0.0000
 19 H      0.0165     0.0000    -0.0165     0.0322     0.0322    -0.0000
 20 N     -0.0033     0.0000     0.0033    -0.0066    -0.0066    -0.0000
 21 H     -0.0046     0.0000     0.0046    -0.0093    -0.0093     0.0000
 22 H     -0.0429     0.0000     0.0429    -0.0866    -0.0866     0.0000
 23 H      0.0026     0.0000    -0.0026     0.0052     0.0052     0.0000
 24 H     -0.0004     0.0000     0.0004    -0.0007    -0.0007    -0.0000
 25 H     -0.0005     0.0000     0.0005    -0.0011    -0.0011    -0.0000
 26 C     -0.0144     0.0000     0.0144    -0.0290    -0.0290     0.0000
 27 N     -0.0066     0.0000     0.0066    -0.0133    -0.0133     0.0000
 28 N      0.0015     0.0000    -0.0015     0.0030     0.0030     0.0000
 29 H      0.0014     0.0000    -0.0014     0.0029     0.0029    -0.0000
 30 C      0.0049     0.0000    -0.0049     0.0096     0.0096     0.0000
 31 C      0.0126     0.0000    -0.0126     0.0251     0.0251    -0.0000
 32 H     -0.0020     0.0000     0.0020    -0.0040    -0.0040     0.0000
 33 C     -0.0091     0.0000     0.0091    -0.0183    -0.0183    -0.0000
 34 H     -0.0024     0.0000     0.0024    -0.0049    -0.0049    -0.0000
 35 H      0.0066     0.0000    -0.0066     0.0131     0.0131    -0.0000
 36 H     -0.0000     0.0000     0.0000    -0.0000    -0.0000     0.0000
 37 H      0.0125     0.0000    -0.0125     0.0248     0.0248     0.0000

  Mayer bond orders larger than 0.100000
B(  0-C ,  2-O ) :   0.8398 B(  0-C ,  7-H ) :   0.9786 B(  0-C ,  8-H ) :   0.9294 
B(  0-C ,  9-H ) :   0.9365 B(  1-C ,  5-O ) :   0.8031 B(  1-C , 10-H ) :   1.1501 
B(  1-C , 11-H ) :   0.8164 B(  1-C , 12-H ) :   0.9240 B(  2-O ,  4-O ) :  -0.1172 
B(  2-O ,  6-P ) :   0.9314 B(  3-O ,  6-P ) :   1.8371 B(  4-O ,  6-P ) :   1.6993 
B(  5-O ,  6-P ) :   0.8137 

-------
TIMINGS
-------

Total SCF time: 0 days 0 hours 7 min 9 sec 

Total time                  ....     429.281 sec
Sum of individual times     ....     430.159 sec  (100.2%)

SCF preparation             ....       1.551 sec  (  0.4%)
Fock matrix formation       ....     407.786 sec  ( 95.0%)
  Startup                   ....       0.649 sec  (  0.2% of F)
  Split-RI-J                ....      19.272 sec  (  4.7% of F)
  Chain of spheres X        ....     318.444 sec  ( 78.1% of F)
  XC integration            ....      42.129 sec  ( 10.3% of F)
    XC Preparation          ....       0.000 sec  (  0.0% of XC)
    Basis function eval.    ....       3.697 sec  (  8.8% of XC)
    Density eval.           ....      13.128 sec  ( 31.2% of XC)
    XC-Functional eval.     ....       0.079 sec  (  0.2% of XC)
    XC-Potential eval.      ....      15.278 sec  ( 36.3% of XC)
  CPCM terms                ....      25.807 sec  (  6.3% of F)
Diagonalization             ....       0.000 sec  (  0.0%)
Density matrix formation    ....       1.643 sec  (  0.4%)
Total Energy calculation    ....       0.883 sec  (  0.2%)
Population analysis         ....       0.820 sec  (  0.2%)
Orbital Transformation      ....       2.746 sec  (  0.6%)
Orbital Orthonormalization  ....       0.000 sec  (  0.0%)
DIIS solution               ....       9.903 sec  (  2.3%)
SOSCF solution              ....       4.625 sec  (  1.1%)
Finished LeanSCF after 429.8 sec

Maximum memory used throughout the entire LEANSCF-calculation: 413.4 MB


           ************************************************************
           *        Program running with 10 parallel MPI-processes    *
           *              working on a common directory               *
           ************************************************************

------------------------------------------------------------------------------
                                ORCA  MP2 
------------------------------------------------------------------------------

Freezing NCore=22 chemical core electrons

-------------
RI-MP2 ENERGY
-------------
Dimension of the orbital basis            ... 1819
Dimension of the AuxC basis               ... 4152
Memory devoted to MP2                     ... 2000 MB   
Data format for matrix containers         ... DOUBLE
Compression type for matrix containers    ... UNCOMPRESSED
Scaling for aa/bb pairs                   ...   5.660e-02
Scaling for ab pairs                      ...   5.935e-01
Overall scaling of the MP2 energy         ...   1.000e+00

-----------------------
SHARK RI TRANSFORMATION
-----------------------

Number of basis functions                ...   1819
Number of aux functions                  ...   4152
Number of operators                      ...      1
Generation of IJK                        ... NO
Generation of IAK                        ... YES
Generation of ABK                        ... NO
Orbital Range Operator  0:   11-  32 to   33-1818

Aux basis identifier                     ...   AUXC
Contraction scheme used                  ... SEGMENTED
Do orthogonalization                     ... YES
All operator combinations                ... NO
Transpose (ia|K)                         ... NO
Integral generator used                  ... LIBINT
Starting integral generation + trafo... 
Half trafo (segmented) done. Total time = 34.8 sec. integrals= 10.2 sec trafo= 14.1 sec
Integral generation and half transformation done ( 34.8 sec)

Reading or making V^(-1/2)          ... done (  0.3 sec)
Sorting IAK integrals               ... done (  9.2 sec)

SHARK RI integral transformation done. Total time = 44.4 sec.

Opening buffers                              ... done

Starting loop over batches of integrals:

Operator 0  - window                       ... ( 11- 32)x( 33-1818)
Operator 0  - Memory available             ...  2000 MB
Operator 0  - Memory needed per MO         ...  56.6 MB
Operator 0  - Number of orbitals per batch ... 3
Operator 0  - Number of batches            ... 1

OPERATOR  0   PASS   0:  MOs    11 ...   13 +   14 ...   16 +   17 ...   19 +   20 ...   22
                            +   23 ...   25 +   26 ...   28 +   29 ...   31 +   32 ...   32
  Reading integrals       ... ok
  Internal MO  13
Time spent in pair loops =    65.374 sec
Deleting buffers (Ka|jb) ...done

-----------------------------------------------
 RI-MP2 CORRELATION ENERGY:     -0.810069698 Eh
-----------------------------------------------


-------
TIMINGS
-------

Total time                :  117.633 sec
Integral trafo            :   44.453 sec ( 37.8%)
I/O of integrals          :    0.165 sec (  0.1%)
K(i,j) operators          :    5.504 sec (  4.7%)
T(i,j) pair energies      :    0.260 sec (  0.2%)
V**(-1/2)                 :    7.805 sec (  6.6%)


---------------------------------------
MP2 TOTAL ENERGY:     -721.666696188 Eh
---------------------------------------

Maximum memory used throughout the entire MP2-calculation: 590.4 MB


-------------------------------------------------------------------------------
                          DFT DISPERSION CORRECTION                            
                                                                               
                                DFTD4 V3.4.0                                   
-------------------------------------------------------------------------------
The REV-DSD-PBEP86-2021 functional is recognized
A user input s6-coefficient scaling factor has been recognized
A user input a1-coefficient scaling factor has been recognized
A user input s8-coefficient scaling factor has been recognized
A user input a2-coefficient scaling factor has been recognized
A user input s9-coefficient scaling factor has been recognized
Active option DFTDOPT                   ...         5   

-------------------------   ----------------
Dispersion correction           -0.008190197
-------------------------   ----------------


-------------------------   --------------------
FINAL SINGLE POINT ENERGY      -721.674886385672
-------------------------   --------------------



           ************************************************************
           *        Program running with 10 parallel MPI-processes    *
           *              working on a common directory               *
           ************************************************************

------------------------------------------------------------------------------
                              ORCA PROPERTY CALCULATIONS
------------------------------------------------------------------------------

GBWName                                 ... pg1_frag.gbw
Number of atoms                         ...     38
Number of basis functions               ...   1819
Max core memory                         ...   2000 MB

Electric properties:
Dipole moment                           ... YES
Quadrupole moment                       ...  NO
Static polarizability (Dipole/Dipole)   ...  NO
Static polarizability (Dipole/Quad.)    ...  NO
Static polarizability (Quad./Quad.)     ...  NO
Static polarizability (Velocity)        ...  NO

Atomic electric properties:
Dipole moment                           ...  NO
Quadrupole moment                       ...  NO
Static polarizability                   ...  NO

Choice of electric origin               ... Center of mass
Position of electric origin             ...    -0.624108     5.287545     9.923836

General magnetic properties:
Magnetizability                         ...  NO

EPR properties:
g-Tensor (aka g-matrix)                 ...  NO
Zero-Field splitting spin-orbit         ...  NO
Zero-field splitting spin-spin          ...  NO
Hyperfine couplings                     ...  NO (   0 nuclei)
Quadrupole couplings                    ...  NO (   0 nuclei)
Contact density                         ...  NO (   0 nuclei)

NMR properties:
Chemical shifts                         ...  NO (   0 nuclei)
Spin-rotation constants                 ...  NO (   0 nuclei)
Spin-spin couplings                     ...  NO (   0 nuclei,    0 pairs)

Choice of magnetic origin               ... GIAO
Position of magnetic origin             ...     0.000000     0.000000     0.000000

Properties with geometric perturbations:
SCF Hessian                             ...  NO
IR spectrum                             ...  NO
VCD spectrum                            ...  NO
X-ray spectroscopy properties:
SCF XES/XAS/RIXS spectra                ...  NO


-------------
DIPOLE MOMENT
-------------

Method             : SCF
Type of density    : Electron Density
Multiplicity       :   1
Irrep              :   0
Energy             :  -720.8566264900139231 Eh
Relativity type    : 
Basis              : AO
                                X                 Y                 Z
Electronic contribution:     -0.185623636      -0.732948963       0.022789823
Nuclear contribution   :     -0.513711561       2.104876986       0.112601396
                        -----------------------------------------
Total Dipole Moment    :     -0.699335197       1.371928022       0.135391219
                        -----------------------------------------
Magnitude (a.u.)       :      1.545828904
Magnitude (Debye)      :      3.929184815



--------------------
Rotational spectrum 
--------------------
 
Rotational constants in cm-1:             0.136809             0.054903             0.053136 
Rotational constants in MHz :          4101.417854          1645.961658          1592.979796 

Dipole components along the rotational axes: 
x,y,z [a.u.] :    -0.013284     1.544779     0.055392 
x,y,z [Debye]:    -0.033766     3.926516     0.140795 

 

Dipole moment calculation done in   0.2 sec 

Maximum memory used throughout the entire PROP-calculation: 272.0 MB

--------------------------------
SUGGESTED CITATIONS FOR THIS RUN
--------------------------------

Below you find a list of papers that are relevant to this ORCA run
We neither can nor want to force you to cite these papers, but we appreciate if you do
You receive ORCA, which is the product of decades of hard work by many enthusiastic individuals, for free
The only thing we kindly ask in return is that you cite our papers,
We deeply appreciate it, if you show your appreciation for ORCA by not just citing the generic ORCA reference.

Please note that relegating all ORCA citations to the supporting information does *not* help us.
SI sections are not indexed - citations you put there will not count into any citation statistics
But we need these citations in order to attract the funding resources that allow us to do what we are doing

Therefore, if you are a happy ORCA user, please consider citing a few of the papers listed below in the main body of your paper

In addition to the list printed below, the program has created the file pg1_frag.bibtex that contains the list in bibtex format
You can import this file easily into all common literature databanks and citation aid programs


List of essential papers. We consider these as the minimum necessary citations

  1. Neese,F.
     Software update: the ORCA program system, version 5.0
     WIRES Comput. Molec. Sci., 2022 12(1)e1606
     doi.org/10.1002/wcms.1606

List of papers to cite with high priority. The work reported in these papers was absolutely
necessary for this run to complete.
Our perspective: the developers of density functionals and basis sets usually get cited in chemistry papers
Good! But without the algorithms to do something with them, the functionals or basis sets would not do anything.
Hence, in our opinion, the algorithm design and method developments papers are equally worthy of getting cited

  1. Neese,F.
     An improvement of the resolution of the identity approximation for the formation of the Coulomb matrix
     J. Comp. Chem., 2003 24(14)1740-1747
     doi.org/10.1002/jcc.10318
  2. Neese,F.; Wennmohs,F.; Hansen,A.; Becker,U.
     Efficient, approximate and parallel Hartree-Fock and hybrid DFT calculations. A 'chain-of-spheres' algorithm for the Hartree-Fock exchange
     Chem. Phys., 2009 356(1-3)98-109
     doi.org/10.1016/j.chemphys.2008.10.036
  3. Kossmann,S.; Neese,F.
     Efficient Structure Optimization with Second-Order Many-Body Perturbation Theory: The RIJCOSX-MP2 Method
     J. Theo. Comp. Chem., 2010 6 2325-2338
     doi.org/10.1021/ct100199k
  4. Garcia-Rates,M.; Neese,F.
     Effect of the Solute Cavity on the Solvation Energy and its Derivatives within the Framework of the Gaussian Charge Scheme
     J. Comput. Chem., 2020 41 922-939
     doi.org/10.1002/jcc.26139
  5. Helmich-Paris,B.; de Souza,B.; Neese,F.; Izsák,R.
     An improved chain of spheres for exchange algorithm
     J. Chem. Phys., 2021 155 104109
     doi.org/doi: 10.1063/5.0058766.
  6. Neese,F.
     The SHARK Integral Generation and Digestion System
     J. Comp. Chem., 2022  1-16
     doi.org/10.1002/jcc.26942
  7. Caldeweyher,E.; Bannwarth,C.; Grimme,S.
     Extension of the D3 dispersion coefficient model
     J. Chem. Phys., 2017 147 034112
     doi.org/10.1063/1.4993215
  8. Caldeweyher,E.; Ehlert,S.; Hansen,A.; Neugebauer,H.; Spicher,S.; Bannwarth,C.; Grimme,S.
     A generally applicable atomic-charge dependent London dispersion correction
     J. Chem. Phys., 2019 150 154122
     doi.org/10.1063/1.5090222
  9. Caldeweyher,E.; Mewes,J.; Ehlert,S.; Grimme,S.
     Extension and evaluation of the D4 London-dispersion model for periodic systems
     Phys. Chem. Chem. Phys., 2020 22(16)8499-8512
     doi.org/10.1039/D0CP00502A
 10. Wittmann,L.; Gordiy,I.; Friede,M.; Helmich-Paris,B.; Grimme,S.; Hansen,A.; Bursch,M.
     Extension of the D3 and D4 London Dispersion Corrections to the full Actinides Series
     Phys. Chem. Chem. Phys., 2024 26(32)21379-21394
     doi.org/https://doi.org/10.1039/D4CP01514B 

List of suggested additional citations. These are papers that are important in the 'surrounding' of 
of this run, or papers that preceded the highly important papers. If you like your results we are grateful for a citation.

  1. Izsak,R.; Neese,F.
     An overlap fitted chain of spheres exchange method
     J. Chem. Phys., 2011 135 144105
     doi.org/10.1063/1.3646921
  2. Izsak,R.; Hansen,A.; Neese,F.
     The resolution of identity and chain of spheres approximations for the LPNO-CCSD singles Fock term
     Molec. Phys., 2012 110 2413-2417
     doi.org/10.1080/00268976.2012.687466
  3. Neese,F.
     The ORCA program system
     WIRES Comput. Molec. Sci., 2012 2(1)73-78
     doi.org/10.1002/wcms.81
  4. Izsak,R.; Neese,F.; Klopper,W.
     Robust fitting techniques in the chain of spheres approximation to the Fock exchange: The role of the complementary space
     J. Chem. Phys., 2013 139 
     doi.org/10.1063/1.4819264
  5. Neese,F.
     Software update: the ORCA program system, version 4.0
     WIRES Comput. Molec. Sci., 2018 8(1)1-6
     doi.org/10.1002/wcms.1327
  6. Neese,F.; Wennmohs,F.; Becker,U.; Riplinger,C.
     The ORCA quantum chemistry program package
     J. Chem. Phys., 2020 152 Art. No. L224108
     doi.org/10.1063/5.0004608

List of optional additional citations

  1. Neese,F.
     Approximate second-order SCF convergence for spin unrestricted wavefunctions
     Chem. Phys. Lett., 2000 325(1-3)93-98
     doi.org/10.1016/s0009-2614(00)00662-x

Timings for individual modules:

Sum of individual times          ...      567.725 sec (=   9.462 min)
Startup calculation              ...       11.122 sec (=   0.185 min)   2.0 %
SCF iterations                   ...      435.846 sec (=   7.264 min)  76.8 %
Property calculations            ...        1.635 sec (=   0.027 min)   0.3 %
MP2 module                       ...      119.122 sec (=   1.985 min)  21.0 %
                             ****ORCA TERMINATED NORMALLY****
TOTAL RUN TIME: 0 days 0 hours 9 minutes 28 seconds 510 msec
