
                                 *****************
                                 * O   R   C   A *
                                 *****************

                                            #,                                       
                                            ###                                      
                                            ####                                     
                                            #####                                    
                                            ######                                   
                                           ########,                                 
                                     ,,################,,,,,                         
                               ,,#################################,,                 
                          ,,##########################################,,             
                       ,#########################################, ''#####,          
                    ,#############################################,,   '####,        
                  ,##################################################,,,,####,       
                ,###########''''           ''''###############################       
              ,#####''   ,,,,##########,,,,          '''####'''          '####       
            ,##' ,,,,###########################,,,                        '##       
           ' ,,###''''                  '''############,,,                           
         ,,##''                                '''############,,,,        ,,,,,,###''
      ,#''                                            '''#######################'''  
     '                                                          ''''####''''         
             ,#######,   #######,   ,#######,      ##                                
            ,#'     '#,  ##    ##  ,#'     '#,    #''#        ,####,   ,####,        
            ##       ##  ##   ,#'  ##            #'  '#       #'       #'  '#        
            ##       ##  #######   ##           ,######,      #####,   #    #        
            '#,     ,#'  ##    ##  '#,     ,#' ,#      #,     #,   #   #,  ,#        
             '#######'   ##     ##  '#######'  #'      '#     '####' # '####'        



                #########################################################
                #                        -***-                          #
                #          Department of theory and spectroscopy        #
                #                                                       #
                #                      Frank Neese                      #
                #                                                       #
                #     Directorship, Architecture, Infrastructure        #
                #                    SHARK, DRIVERS                     #
                #        Core code/Algorithms in most modules           #
                #                                                       #
                #        Max Planck Institute fuer Kohlenforschung      #
                #                Kaiser Wilhelm Platz 1                 #
                #                 D-45470 Muelheim/Ruhr                 #
                #                      Germany                          #
                #                                                       #
                #                  All rights reserved                  #
                #                        -***-                          #
                #########################################################


                         Program Version 6.0.1  -  RELEASE   -


 With contributions from (in alphabetic order):
[Max-Planck-Institut fuer Kohlenforschung]                               
  Daniel Aravena         : Magnetic Suceptibility                        
  Michael Atanasov       : Ab Initio Ligand Field Theory (pilot matlab implementation)
  Alexander A. Auer      : GIAO ZORA, VPT2 properties, NMR spectrum      
  Ute Becker             : All parallelization in ORCA, NUMFREQ, NUMCALC 
  Giovanni Bistoni       : ED, misc. LED, open-shell LED, HFLD           
  Martin Brehm           : Molecular dynamics                            
  Dmytro Bykov           : pre 5.0 version of the SCF Hessian            
  Marcos Casanova-Páez   : Triplet and SCS-CIS(D). UHF-(DLPNO)-IP/EA/STEOM-CCSD. UHF-CVS-IP/STEOM-CCSD   
  Vijay G. Chilkuri      : MRCI spin determinant printing, contributions to CSF-ICE 
  Pauline Colinet        : FMM embedding                                 
  Dipayan Datta          : RHF DLPNO-CCSD density                        
  Achintya Kumar Dutta   : EOM-CC, STEOM-CC                              
  Nicolas Foglia         : Exact transition moments, OPA infrastructure, MCD improvements    
  Dmitry Ganyushin       : Spin-Orbit,Spin-Spin,Magnetic field MRCI      
  Miquel Garcia-Rates    : C-PCM and meta-GGA Hessian, CCSD/C-PCM, Gaussian charge scheme 
  Tiago L. C. Gouveia    : GS-ROHF, GS-ROCIS                             
  Yang Guo               : DLPNO-NEVPT2, F12-NEVPT2, CIM, IAO-localization        
  Andreas Hansen         : Spin unrestricted coupled pair/coupled cluster methods 
  Ingolf Harden          : AUTO-CI MPn and infrastructure                
  Benjamin Helmich-Paris : MC-RPA, TRAH-(SCF,CASSCF), AVAS, COSX integrals, SCF dyn. polar. 
  Lee Huntington         : MR-EOM, pCC                                   
  Robert Izsak           : Overlap fitted RIJCOSX, COSX-SCS-MP3, EOM     
  Riya Kayal             : Wick's Theorem for AUTO-CI, AUTO-CI UHF-CCSDT 
  Emily Kempfer          : AUTO-CI, RHF CISDT and CCSDT                  
  Christian Kollmar      : KDIIS, OOCD, Brueckner-CCSD(T), CCSD density, CASPT2, CASPT2-K, improved NEVPT2 
  Axel Koslowski         : Symmetry handling                             
  Simone Kossmann        : meta-GGA functionals, TD-DFT gradient, OOMP2, (MP2 Hessian; deprecated post 5.0) 
  Lucas Lang             : DCDCAS                                        
  Marvin Lechner         : AUTO-CI (C++ implementation), FIC-MRCC        
  Spencer Leger          : CASSCF response                               
  Dagmar Lenk            : GEPOL surface, SMD, ORCA-2-JSON               
  Dimitrios Liakos       : Extrapolation schemes; Compound Job, initial MDCI parallelization 
  Dimitrios Manganas     : Further ROCIS development; embedding schemes. LFT, Crystal Embedding 
  Dimitrios Pantazis     : SARC Basis sets                               
  Anastasios Papadopoulos: AUTO-CI, single reference methods and gradients 
  Taras Petrenko         : pre 6.0 DFT Hessian and TD-DFT gradient, (ASA, deprecated), ECA, 1-Electron XAS/XES, NRVS 
  Peter Pinski           : DLPNO-MP2, DLPNO-MP2 Gradient                 
  Christoph Reimann      : Effective Core Potentials                     
  Marius Retegan         : Local ZFS, SOC                                
  Christoph Riplinger    : Optimizer, TS searches, QM/MM, DLPNO-CCSD(T), (RO)-DLPNO pert. Triples 
  Michael Roemelt        : Original ROCIS implementation                 
  Masaaki Saitow         : Open-shell DLPNO-CCSD energy and density      
  Barbara Sandhoefer     : DKH picture change effects                    
  Kantharuban Sivalingam : CASSCF convergence/infrastructure, NEVPT2 and variants, FIC-MRCI 
  Bernardo de Souza      : ESD, SOC TD-DFT                               
  Georgi L. Stoychev     : AutoAux, RI-MP2 NMR, DLPNO-MP2 response, X2C  
  Van Anh Tran           : RI-MP2 g-tensors                              
  Willem Van den Heuvel  : Paramagnetic NMR                              
  Zikuan Wang            : NOTCH, Electric field optimization            
  Frank Wennmohs         : Technical directorship and infrastructure     
  Hang Xu                : AUTO-CI-Response properties                   
                                                                         
[FACCTs GmbH]                                                            
  Markus Bursch, Miquel Garcia-Rates, Christoph Riplinger, Bernardo de Souza, Georgi L. Stoychev 
                                                                 
  APM, Basis sets (HGBS, AHGBS, def-TZVP (Ac-Lr), def2-XVPD (La-Lu)), CI-OPT, improved COSX, DLPNO-Multilevel,           
  DOCKER, DRACO, updates on ESD, GOAT, IRC, LR-CPCM, MBIS, meta-GGA TD-DFT gradient, ML-optimized integration grids, 
  MM, NACMEs, nearIR, NEB, NEB-TS, NL-DFT gradient (VV10), 2- and 3-layer-ONIOM, interface openCOSMO-RS, QMMM,   
  Crystal-QMMM, SF, symmetry and pop. for TD-DFT, r2SCAN hybrids, SOLVATOR                                   
                                                                         
[Other institutions]                                                     
  V. Asgeirsson          : NEB                                           
  Christoph Bannwarth    : sTDA-DFT, sTD-DFT, PBEh-3c, B97-3c, D3        
  Sebastian Ehlert       : rSCAN, r2SCAN, r2SCAN-3c, D4, dhf basis sets  
  Marvin Friede          : D4 for Fr, Ra, Ac-Lr                          
  Lars Goerigk           : TD-DFT with DH, B97 family of functionals     
  Stefan Grimme          : VdW corrections, initial TS optimization, DFT functionals, gCP, sTDA/sTD-DF 
  Waldemar Hujo          : DFT-NL                                        
  H. Jonsson             : NEB                                           
  Holger Kruse           : gCP                                           
  Marcel Mueller         : wB97X-3c, vDZP basis set                      
  Hagen Neugebauer       : wr2SCAN                                       
  Tobias Risthaus        : range-separated hybrid DFT                    
  Lukas Wittmann         : regularized MP2, r2SCAN double-hybrids, wr2SCAN        
                                                                         
We gratefully acknowledge several colleagues who have allowed us to      
interface, adapt or use parts of their codes:                            
  Ed Valeev, F. Pavosevic, A. Kumar             : LibInt (2-el integral package), F12 methods 
  Garnet Chan, S. Sharma, J. Yang, R. Olivares  : DMRG                   
  Ulf Ekstrom                                   : XCFun DFT Library      
  Mihaly Kallay                                 : mrcc  (arbitrary order and MRCC methods)
  Frank Weinhold                                : gennbo (NPA and NBO analysis)           
  Simon Mueller                                 : openCOSMO-RS                            
  Christopher J. Cramer and Donald G. Truhlar   : smd solvation model                     
  S Lehtola, MJT Oliveira, MAL Marques          : LibXC Library                           
  Liviu Ungur et al                             : ANISO software                          


 Your calculation uses the libint2 library for the computation of 2-el integrals
 For citations please refer to: http://libint.valeyev.net

 Your ORCA version has been built with support for libXC version: 6.2.2
 For citations please refer to: https://libxc.gitlab.io

 This ORCA versions uses:
   CBLAS   interface :  Fast vector & matrix operations
   LAPACKE interface :  Fast linear algebra routines
   SCALAPACK package :  Parallel linear algebra routines
   Shared memory     :  Shared parallel matrices
   BLAS/LAPACK       :  OpenBLAS 0.3.27  USE64BITINT DYNAMIC_ARCH NO_AFFINITY Haswell SINGLE_THREADED
        Core in use  :  Haswell
   Copyright (c) 2011-2014, The OpenBLAS Project


NOTE: MaxCore=2000 MB was set to SCF,MP2,MDCI,CIPSI,MRCI and CIS
      => If you want to overwrite this, your respective input block should be placed after the MaxCore statement
Your calculation utilizes the atom-pairwise dispersion correction
based on EEQ partial charges (D4)


================================================================================

----- Orbital basis set information -----
Your calculation utilizes the basis: def2-QZVPPD
   F. Weigend and R. Ahlrichs, Phys. Chem. Chem. Phys. 7, 3297 (2005).
   D. Rappoport and F. Furche, J. Chem. Phys. 133, 134105 (2010)
   D. Rappoport, J. Chem. Phys. 155, 124102 (2021).

----- AuxJ basis set information -----
Your calculation utilizes the auxiliary basis: def2/J
   F. Weigend, Phys. Chem. Chem. Phys. 8, 1057 (2006).

----- AuxC basis set information -----
Your calculation utilizes the auxiliary basis: def2-QZVPPD/C
   A. Hellweg, C. Hattig, S. Hofener and W. Klopper, Theor. Chem. Acc. 117, 587 (2007).
  A. Hellweg and D. Rappoport; Phys. Chem. Chem. Phys. 17, 1010 (2015).

================================================================================
                                        WARNINGS
                       Please study these warnings very carefully!
================================================================================


WARNING: No MP2 level density has been requested!
         To calculate MP2 level properties use
         %mp2 Density relaxed end
         or
         %mp2 Density unrelaxed end
         Otherwise for double-hybrid DFT only the energy is correct!

WARNING: The frozen-core approximation is turned on by default for 
         the MP2 part of double-hybrid DFT.

================================================================================
                                       INPUT FILE
================================================================================
NAME = r2_frag.inp
|  1> # ------------------------------------
|  2> # RH_POPG (POPG1 & H3 ghosted); ion pair-pi
|  3> # ------------------------------------
|  4> ! SP revDSD-PBEP86-D4/2021 def2-QZVPPD RIJCOSX def2/J TightSCF CPCM
|  5> %basis
|  6>   basis   "def2-QZVPPD"
|  7>   aux     "def2/J"           # RI-J (for SCF/RIJCOSX)
|  8>   auxC    "def2-QZVPPD/C"    # required for RI-MP2 (AuxC)
|  9> end
| 10> %pal
| 11>     nprocs 10
| 12> end
| 13> %MaxCore 2000
| 14> %cpcm 
| 15>    epsilon 3.0 
| 16> end
| 17> *xyz 1 1
| 18> # POPG1 ghosted
| 19> C:    -1.25600      3.08800       2.88600
| 20> C:     0.26300      3.32700       7.70100
| 21> O:    -1.11600      3.51300       4.22100
| 22> O:    -0.79200      1.18700       5.29400
| 23> O:     1.24900      2.72400       4.90800
| 24> O:    -0.58000      3.41300       6.57700
| 25> P:    -0.22900      2.59700       5.21900
| 26> H:    -1.87500      3.80000       2.34100
| 27> H:    -0.27300      3.02900       2.41900
| 28> H:    -1.72800      2.10600       2.86500
| 29> H:    -0.14000      3.94100       8.50600
| 30> H:     0.32300      2.28900       8.03100
| 31> H:     1.25900      3.68100       7.43600
| 32> # Arg2
| 33> C      4.30800     -0.36900       1.52000
| 34> N      3.95800     -0.33000       2.92400
| 35> H      3.88300     -1.24600       3.36900
| 36> C      3.18000      0.58800       3.51900
| 37> N      3.05800      1.83100       3.06000
| 38> H      3.67100      2.19200       2.34500
| 39> H      2.40100      2.44200       3.56600
| 40> N      2.54400      0.25200       4.64100
| 41> H      2.36800     -0.73700       4.81100
| 42> H      1.95600      0.97500       5.06800
| 43> H      4.36600      0.64800       1.13100
| 44> H      3.54800     -0.92500       0.97200
| 45> H      5.27400     -0.85900       1.40000
| 46> # His3 ghosted
| 47> C:    -1.43400     -1.19700       2.67600
| 48> N:     0.27800      0.24600       1.47600
| 49> N:    -0.90600      1.03900      -0.20400
| 50> H:    -1.14800      1.57700      -1.02800
| 51> C:    -0.98500     -0.29300       1.53300
| 52> C:     0.28900      1.03900       0.42800
| 53> H:     1.13400      1.63700       0.08700
| 54> C:    -1.73500      0.18800       0.48500
| 55> H:    -2.76500      0.00700       0.18700
| 56> H:    -2.46600     -1.50400       2.51300
| 57> H:    -0.79400     -2.07800       2.71400
| 58> H:    -1.36100     -0.65400       3.61900
| 59> *
| 60> 
| 61> 
| 62> 
| 63>                          ****END OF INPUT****
================================================================================

                       ****************************
                       * Single Point Calculation *
                       ****************************

---------------------------------
CARTESIAN COORDINATES (ANGSTROEM)
---------------------------------
  C     -1.256000    3.088000    2.886000
  C      0.263000    3.327000    7.701000
  O     -1.116000    3.513000    4.221000
  O     -0.792000    1.187000    5.294000
  O      1.249000    2.724000    4.908000
  O     -0.580000    3.413000    6.577000
  P     -0.229000    2.597000    5.219000
  H     -1.875000    3.800000    2.341000
  H     -0.273000    3.029000    2.419000
  H     -1.728000    2.106000    2.865000
  H     -0.140000    3.941000    8.506000
  H      0.323000    2.289000    8.031000
  H      1.259000    3.681000    7.436000
  C      4.308000   -0.369000    1.520000
  N      3.958000   -0.330000    2.924000
  H      3.883000   -1.246000    3.369000
  C      3.180000    0.588000    3.519000
  N      3.058000    1.831000    3.060000
  H      3.671000    2.192000    2.345000
  H      2.401000    2.442000    3.566000
  N      2.544000    0.252000    4.641000
  H      2.368000   -0.737000    4.811000
  H      1.956000    0.975000    5.068000
  H      4.366000    0.648000    1.131000
  H      3.548000   -0.925000    0.972000
  H      5.274000   -0.859000    1.400000
  C     -1.434000   -1.197000    2.676000
  N      0.278000    0.246000    1.476000
  N     -0.906000    1.039000   -0.204000
  H     -1.148000    1.577000   -1.028000
  C     -0.985000   -0.293000    1.533000
  C      0.289000    1.039000    0.428000
  H      1.134000    1.637000    0.087000
  C     -1.735000    0.188000    0.485000
  H     -2.765000    0.007000    0.187000
  H     -2.466000   -1.504000    2.513000
  H     -0.794000   -2.078000    2.714000
  H     -1.361000   -0.654000    3.619000

----------------------------
CARTESIAN COORDINATES (A.U.)
----------------------------
  NO LB      ZA    FRAG     MASS         X           Y           Z
   0 C     0.0000    0     0.000   -2.373496    5.835474    5.453750
   1 C     0.0000    0     0.000    0.496998    6.287119   14.552781
   2 O     0.0000    0     0.000   -2.108934    6.638608    7.976534
   3 O     0.0000    0     0.000   -1.496663    2.243105   10.004210
   4 O     0.0000    0     0.000    2.360268    5.147614    9.274776
   5 O     0.0000    0     0.000   -1.096041    6.449635   12.428729
   6 P     0.0000    0     0.000   -0.432747    4.907619    9.862481
   7 H     0.0000    0     0.000   -3.543237    7.180959    4.423849
   8 H     0.0000    0     0.000   -0.515895    5.723980    4.571248
   9 H     0.0000    0     0.000   -3.265447    3.979763    5.414065
  10 H     0.0000    0     0.000   -0.264562    7.447411   16.074010
  11 H     0.0000    0     0.000    0.610382    4.325583   15.176391
  12 H     0.0000    0     0.000    2.379165    6.956082   14.052004
  13 C     6.0000    0    12.011    8.140940   -0.697309    2.872384
  14 N     7.0000    0    14.007    7.479536   -0.623610    5.525559
  15 H     1.0000    0     1.008    7.337807   -2.354599    6.366487
  16 C     6.0000    0    12.011    6.009329    1.111159    6.649946
  17 N     7.0000    0    14.007    5.778783    3.460089    5.782562
  18 H     1.0000    0     1.008    6.937185    4.142280    4.431408
  19 H     1.0000    0     1.008    4.537232    4.614711    6.738763
  20 N     7.0000    0    14.007    4.807463    0.476211    8.770219
  21 H     1.0000    0     1.008    4.474871   -1.392728    9.091472
  22 H     1.0000    0     1.008    3.696304    1.842483    9.577132
  23 H     1.0000    0     1.008    8.250544    1.224543    2.137280
  24 H     1.0000    0     1.008    6.704748   -1.747997    1.836814
  25 H     1.0000    0     1.008    9.966416   -1.623275    2.645617
  26 C     0.0000    0     0.000   -2.709867   -2.262002    5.056907
  27 N     0.0000    0     0.000    0.525344    0.464873    2.789236
  28 N     0.0000    0     0.000   -1.712092    1.963425   -0.385504
  29 H     0.0000    0     0.000   -2.169406    2.980098   -1.942638
  30 C     0.0000    0     0.000   -1.861380   -0.553690    2.896950
  31 C     0.0000    0     0.000    0.546131    1.963425    0.808803
  32 H     0.0000    0     0.000    2.142949    3.093482    0.164406
  33 C     0.0000    0     0.000   -3.278675    0.355269    0.916517
  34 H     0.0000    0     0.000   -5.225093    0.013228    0.353379
  35 H     0.0000    0     0.000   -4.660065   -2.842148    4.748882
  36 H     0.0000    0     0.000   -1.500443   -3.926851    5.128717
  37 H     0.0000    0     0.000   -2.571917   -1.235881    6.838919

--------------------------------
INTERNAL COORDINATES (ANGSTROEM)
--------------------------------
 C      0   0   0     0.000000000000     0.00000000     0.00000000
 C      1   0   0     5.054572880076     0.00000000     0.00000000
 O      1   2   0     1.407995028400    18.67132463     0.00000000
 O      3   1   2     2.581972308140    97.73452977   326.16132629
 O      4   3   1     2.583998065015    60.07880033   102.34230838
 O      2   1   3     1.407629567749    20.32378076    35.80594638
 P      5   4   3     1.515695879786    31.71129267    32.09493168
 H      1   2   6     1.089554955016   128.04854352    42.51192240
 H      1   2   6     1.089889443935    98.02977362   165.06198648
 H      1   2   6     1.089747218395   101.01870999   276.82146315
 H      2   1   3     1.089692617209   128.25976835    10.57131939
 H      2   1   3     1.090845543604   105.05317628   141.20986129
 H      2   1   3     1.089750888965    93.34667227   252.34248415
 C      5   4   3     5.513861985941   101.32232118   240.57338228
 N     14   5   4     1.447493350589    41.81962639   285.39236399
 H     15  14   5     1.021129766484   114.60043876   146.39028081
 C     15  14   5     1.342398227055   126.04918748   358.49694821
 N     17  15  14     1.330644204887   122.61916505   332.57694134
 H     18  17  15     1.008620344828   121.54351664   348.60949676
 H     18  17  15     1.030051455025   116.30398443   177.21337834
 N     17  15  14     1.332770047683   118.50952509   155.06972019
 H     21  17  15     1.018821377868   117.88087206   336.62034162
 H     21  17  15     1.025086337827   116.52514856   180.18856895
 H     14   5   4     1.090400843727    74.06931422   138.29786348
 H     14   5   4     1.089513652966   102.02415815    31.20354340
 H     14   5   4     1.089796311244   144.25631533   239.60672548
 C     10   1   2     3.321440350210   149.19120764   280.25844899
 N     27  10   1     2.540313563322    61.42212975   328.57987110
 N     28  27  10     2.202976395697   101.68371537   287.96714259
 H     29  28  27     1.013402190643   159.97129425   175.72911101
 C     28  27  10     1.374386772346    30.49469994   283.74585159
 C     28  27  10     1.314257965546   136.47448387   290.02353530
 H     32  28  27     1.089912840552   125.94650997   176.22051101
 C     29  28  27     1.373376496085    73.66713830   357.43425975
 H     34  29  28     1.087412065410   122.50735605   179.70088295
 H     27  10   1     1.088963727587   101.82868571   191.43853723
 H     27  10   1     1.089589372195   148.65825336    12.56898962
 H     27  10   1     1.090608545721    57.42524080    85.76248671

---------------------------
INTERNAL COORDINATES (A.U.)
---------------------------
 C      0   0   0     0.000000000000     0.00000000     0.00000000
 C      1   0   0     9.551758467289     0.00000000     0.00000000
 O      1   2   0     2.660725001599    18.67132463     0.00000000
 O      3   1   2     4.879220547752    97.73452977   326.16132629
 O      4   3   1     4.883048673460    60.07880033   102.34230838
 O      2   1   3     2.660034381055    20.32378076    35.80594638
 P      5   4   3     2.864250115108    31.71129267    32.09493168
 H      1   2   6     2.058960472837   128.04854352    42.51192240
 H      1   2   6     2.059592565288    98.02977362   165.06198648
 H      1   2   6     2.059323797969   101.01870999   276.82146315
 H      2   1   3     2.059220616681   128.25976835    10.57131939
 H      2   1   3     2.061399331819   105.05317628   141.20986129
 H      2   1   3     2.059330734341    93.34667227   252.34248415
 C      5   4   3    10.419689093667   101.32232118   240.57338228
 N     14   5   4     2.735366013286    41.81962639   285.39236399
 H     15  14   5     1.929655605850   114.60043876   146.39028081
 C     15  14   5     2.536765011795   126.04918748   358.49694821
 N     17  15  14     2.514553128926   122.61916505   332.57694134
 H     18  17  15     1.906016224825   121.54351664   348.60949676
 H     18  17  15     1.946515153845   116.30398443   177.21337834
 N     17  15  14     2.518570389613   118.50952509   155.06972019
 H     21  17  15     1.925293383554   117.88087206   336.62034162
 H     21  17  15     1.937132442118   116.52514856   180.18856895
 H     14   5   4     2.060558970840    74.06931422   138.29786348
 H     14   5   4     2.058882423274   102.02415815    31.20354340
 H     14   5   4     2.059416570008   144.25631533   239.60672548
 C     10   1   2     6.276612632052   149.19120764   280.25844899
 N     27  10   1     4.800496928965    61.42212975   328.57987110
 N     28  27  10     4.163022067361   101.68371537   287.96714259
 H     29  28  27     1.915052603831   159.97129425   175.72911101
 C     28  27  10     2.597214601818    30.49469994   283.74585159
 C     28  27  10     2.483587624206   136.47448387   290.02353530
 H     32  28  27     2.059636778487   125.94650997   176.22051101
 C     29  28  27     2.595305456366    73.66713830   357.43425975
 H     34  29  28     2.054910998347   122.50735605   179.70088295
 H     27  10   1     2.057843214913   101.82868571   191.43853723
 H     27  10   1     2.059025511879   148.65825336    12.56898962
 H     27  10   1     2.060951470727    57.42524080    85.76248671

---------------------
BASIS SET INFORMATION
---------------------
There are 5 groups of distinct atoms

 Group   1 Type C   : 16s8p4d2f1g contracted to 8s4p4d2f1g pattern {82111111/5111/1111/11/1}
 Group   2 Type O   : 16s9p4d2f1g contracted to 8s5p4d2f1g pattern {82111111/51111/1111/11/1}
 Group   3 Type P   : 21s14p5d2f1g contracted to 10s6p5d2f1g pattern {10311111111/821111/11111/11/1}
 Group   4 Type H   : 7s4p2d1f contracted to 4s4p2d1f pattern {4111/1111/11/1}
 Group   5 Type N   : 16s8p4d2f1g contracted to 8s4p4d2f1g pattern {82111111/5111/1111/11/1}

Atom   0C    basis set group =>   1
Atom   1C    basis set group =>   1
Atom   2O    basis set group =>   2
Atom   3O    basis set group =>   2
Atom   4O    basis set group =>   2
Atom   5O    basis set group =>   2
Atom   6P    basis set group =>   3
Atom   7H    basis set group =>   4
Atom   8H    basis set group =>   4
Atom   9H    basis set group =>   4
Atom  10H    basis set group =>   4
Atom  11H    basis set group =>   4
Atom  12H    basis set group =>   4
Atom  13C    basis set group =>   1
Atom  14N    basis set group =>   5
Atom  15H    basis set group =>   4
Atom  16C    basis set group =>   1
Atom  17N    basis set group =>   5
Atom  18H    basis set group =>   4
Atom  19H    basis set group =>   4
Atom  20N    basis set group =>   5
Atom  21H    basis set group =>   4
Atom  22H    basis set group =>   4
Atom  23H    basis set group =>   4
Atom  24H    basis set group =>   4
Atom  25H    basis set group =>   4
Atom  26C    basis set group =>   1
Atom  27N    basis set group =>   5
Atom  28N    basis set group =>   5
Atom  29H    basis set group =>   4
Atom  30C    basis set group =>   1
Atom  31C    basis set group =>   1
Atom  32H    basis set group =>   4
Atom  33C    basis set group =>   1
Atom  34H    basis set group =>   4
Atom  35H    basis set group =>   4
Atom  36H    basis set group =>   4
Atom  37H    basis set group =>   4
---------------------------------
AUXILIARY/J BASIS SET INFORMATION
---------------------------------
There are 5 groups of distinct atoms

 Group   1 Type C   : 12s5p4d2f1g contracted to 6s4p3d1f1g pattern {711111/2111/211/2/1}
 Group   2 Type O   : 12s5p4d2f1g contracted to 6s4p3d1f1g pattern {711111/2111/211/2/1}
 Group   3 Type P   : 14s5p5d2f1g contracted to 8s4p3d1f1g pattern {71111111/2111/311/2/1}
 Group   4 Type H   : 5s2p1d contracted to 3s1p1d pattern {311/2/1}
 Group   5 Type N   : 12s5p4d2f1g contracted to 6s4p3d1f1g pattern {711111/2111/211/2/1}

Atom   0C    basis set group =>   1
Atom   1C    basis set group =>   1
Atom   2O    basis set group =>   2
Atom   3O    basis set group =>   2
Atom   4O    basis set group =>   2
Atom   5O    basis set group =>   2
Atom   6P    basis set group =>   3
Atom   7H    basis set group =>   4
Atom   8H    basis set group =>   4
Atom   9H    basis set group =>   4
Atom  10H    basis set group =>   4
Atom  11H    basis set group =>   4
Atom  12H    basis set group =>   4
Atom  13C    basis set group =>   1
Atom  14N    basis set group =>   5
Atom  15H    basis set group =>   4
Atom  16C    basis set group =>   1
Atom  17N    basis set group =>   5
Atom  18H    basis set group =>   4
Atom  19H    basis set group =>   4
Atom  20N    basis set group =>   5
Atom  21H    basis set group =>   4
Atom  22H    basis set group =>   4
Atom  23H    basis set group =>   4
Atom  24H    basis set group =>   4
Atom  25H    basis set group =>   4
Atom  26C    basis set group =>   1
Atom  27N    basis set group =>   5
Atom  28N    basis set group =>   5
Atom  29H    basis set group =>   4
Atom  30C    basis set group =>   1
Atom  31C    basis set group =>   1
Atom  32H    basis set group =>   4
Atom  33C    basis set group =>   1
Atom  34H    basis set group =>   4
Atom  35H    basis set group =>   4
Atom  36H    basis set group =>   4
Atom  37H    basis set group =>   4
---------------------------------
AUXILIARY/C BASIS SET INFORMATION
---------------------------------
There are 5 groups of distinct atoms

 Group   1 Type C   : 10s9p8d6f3g1h contracted to 10s9p8d6f3g1h pattern {1111111111/111111111/11111111/111111/111/1}
 Group   2 Type O   : 10s9p8d6f3g1h contracted to 10s9p8d6f3g1h pattern {1111111111/111111111/11111111/111111/111/1}
 Group   3 Type P   : 13s11p10d7f3g1h contracted to 13s11p10d7f3g1h pattern {1111111111111/11111111111/1111111111/1111111/111/1}
 Group   4 Type H   : 7s5p4d2f1g contracted to 7s5p4d2f1g pattern {1111111/11111/1111/11/1}
 Group   5 Type N   : 10s9p8d6f3g1h contracted to 10s9p8d6f3g1h pattern {1111111111/111111111/11111111/111111/111/1}

Atom   0C    basis set group =>   1
Atom   1C    basis set group =>   1
Atom   2O    basis set group =>   2
Atom   3O    basis set group =>   2
Atom   4O    basis set group =>   2
Atom   5O    basis set group =>   2
Atom   6P    basis set group =>   3
Atom   7H    basis set group =>   4
Atom   8H    basis set group =>   4
Atom   9H    basis set group =>   4
Atom  10H    basis set group =>   4
Atom  11H    basis set group =>   4
Atom  12H    basis set group =>   4
Atom  13C    basis set group =>   1
Atom  14N    basis set group =>   5
Atom  15H    basis set group =>   4
Atom  16C    basis set group =>   1
Atom  17N    basis set group =>   5
Atom  18H    basis set group =>   4
Atom  19H    basis set group =>   4
Atom  20N    basis set group =>   5
Atom  21H    basis set group =>   4
Atom  22H    basis set group =>   4
Atom  23H    basis set group =>   4
Atom  24H    basis set group =>   4
Atom  25H    basis set group =>   4
Atom  26C    basis set group =>   1
Atom  27N    basis set group =>   5
Atom  28N    basis set group =>   5
Atom  29H    basis set group =>   4
Atom  30C    basis set group =>   1
Atom  31C    basis set group =>   1
Atom  32H    basis set group =>   4
Atom  33C    basis set group =>   1
Atom  34H    basis set group =>   4
Atom  35H    basis set group =>   4
Atom  36H    basis set group =>   4
Atom  37H    basis set group =>   4


           ************************************************************
           *        Program running with 10 parallel MPI-processes    *
           *              working on a common directory               *
           ************************************************************
------------------------------------------------------------------------------
                             ORCA STARTUP CALCULATIONS
                           -- RI-GTO INTEGRALS CHOSEN --
------------------------------------------------------------------------------
------------------------------------------------------------------------------
                   ___                                                        
                  /   \      - P O W E R E D   B Y -                         
                 /     \                                                     
                 |  |  |   _    _      __       _____    __    __             
                 |  |  |  | |  | |    /  \     |  _  \  |  |  /  |          
                  \  \/   | |  | |   /    \    | | | |  |  | /  /          
                 / \  \   | |__| |  /  /\  \   | |_| |  |  |/  /          
                |  |  |   |  __  | /  /__\  \  |    /   |      \           
                |  |  |   | |  | | |   __   |  |    \   |  |\   \          
                \     /   | |  | | |  |  |  |  | |\  \  |  | \   \       
                 \___/    |_|  |_| |__|  |__|  |_| \__\ |__|  \__/        
                                                                              
                      - O R C A' S   B I G   F R I E N D -                    
                                      &                                       
                       - I N T E G R A L  F E E D E R -                       
                                                                              
 v1 FN, 2020, v2 2021, v3 2022-2024                                           
------------------------------------------------------------------------------


----------------------
SHARK INTEGRAL PACKAGE
----------------------

Number of atoms                             ...     38
Number of basis functions                   ...   1819
Number of shells                            ...    571
Maximum angular momentum                    ...      4
Integral batch strategy                     ... SHARK/LIBINT Hybrid
RI-J (if used) integral strategy            ... SPLIT-RIJ (Revised 2003 algorithm where possible)
Printlevel                                  ...      1
Contraction scheme used                     ... SEGMENTED contraction
Prescreening option                         ... SCHWARTZ
   Thresh                                   ... 2.500e-11
   Tcut                                     ... 2.500e-12
   Tpresel                                  ... 2.500e-12 
Coulomb Range Separation                    ... NOT USED
Exchange Range Separation                   ... NOT USED
Multipole approximations                    ... NOT USED
Finite Nucleus Model                        ... NOT USED
CABS basis                                  ... NOT available
Auxiliary Coulomb fitting basis             ... AVAILABLE
   # of basis functions in Aux-J            ...   1104
   # of shells in Aux-J                     ...    372
   Maximum angular momentum in Aux-J        ...      4
Auxiliary J/K fitting basis                 ... NOT available
Auxiliary Correlation fitting basis         ... AVAILABLE
   # of basis functions in Aux-C            ...   4152
   # of shells in Aux-C                     ...   1054
   Maximum angular momentum in Aux-C        ...      5
Auxiliary 'external' fitting basis          ... NOT available

Checking pre-screening integrals            ... done (  0.0 sec) Dimension = 571
Check shell pair data                       ... done (  0.0 sec)
Shell pair information
Shell pair cut-off parameter TPreSel        ...   2.5e-12
Total number of shell pairs                 ...    163306
Shell pairs after pre-screening             ...    111201
Total number of primitive shell pairs       ...    365945
Primitive shell pairs kept                  ...    182318
          la=0 lb=0:  17039 shell pairs
          la=1 lb=0:  26066 shell pairs
          la=1 lb=1:   9937 shell pairs
          la=2 lb=0:  17012 shell pairs
          la=2 lb=1:  13162 shell pairs
          la=2 lb=2:   4346 shell pairs
          la=3 lb=0:   7242 shell pairs
          la=3 lb=1:   5919 shell pairs
          la=3 lb=2:   3666 shell pairs
          la=3 lb=3:    758 shell pairs
          la=4 lb=0:   2359 shell pairs
          la=4 lb=1:   1923 shell pairs
          la=4 lb=2:   1205 shell pairs
          la=4 lb=3:    478 shell pairs
          la=4 lb=4:     89 shell pairs

Calculating one electron integrals          ... done (  0.2 sec)
Calculating RI/J V-Matrix + Cholesky decomp.... done (  0.0 sec)
Calculating RI/C V-Matrix + Cholesky decomp.... done (  0.5 sec)
Calculating Nuclear repulsion               ... done (  0.0 sec) ENN=    193.041619833882 Eh

Diagonalization of the overlap matrix:
Smallest eigenvalue                        ... 9.197e-08
Time for diagonalization                   ...    0.482 sec
Threshold for overlap eigenvalues          ... 1.000e-07
Number of eigenvalues below threshold      ... 1
Smallest eigenvalue above threshold        ... 1.078e-07

IMPORTANT:
Smallest eigenvalue of S below the DiffSThresh (1.000e-06) while
Thresh>1e-12 and/or TCut>1e-13! In order to avoid SCF convergence issues,
Thresh will be set to at least 1e-12 and TCut to at least 1e-13.
This can be turned off by adding %SCF DiffSThresh -1 END to the input.

Time for construction of square roots      ...    0.260 sec
Total time needed                          ...    0.761 sec

-------------------
DFT GRID GENERATION
-------------------

General Integration Accuracy     IntAcc      ... 4.388
Radial Grid Type                 RadialGrid  ... OptM3 with GC (2021)
Angular Grid (max. ang.)         AngularGrid ... 4 (Lebedev-302)
Angular grid pruning method      GridPruning ... 4 (adaptive)
Weight generation scheme         WeightScheme... mBecke (2022)
Basis function cutoff            BFCut       ... 1.0000e-11
Integration weight cutoff        WCut        ... 1.0000e-14
Partially contracted basis set               ... off
Rotationally invariant grid construction     ... off
Angular grids for H and He will be reduced by one unit
Diffuse basis detected: some atoms will have their outermost
                        angular grid increased by 1.

Total number of grid points                  ...   181379
Total number of batches                      ...     2853
Average number of points per batch           ...       63
Average number of grid points per atom       ...     4773

--------------------
COSX GRID GENERATION
--------------------

GRIDX 1
-------
General Integration Accuracy     IntAcc      ... 3.816
Radial Grid Type                 RadialGrid  ... OptM3 with GC (2021)
Angular Grid (max. ang.)         AngularGrid ... 1 (Lebedev-50)
Angular grid pruning method      GridPruning ... 4 (adaptive)
Weight generation scheme         WeightScheme... mBecke (2022)
Basis function cutoff            BFCut       ... 1.0000e-11
Integration weight cutoff        WCut        ... 1.0000e-14
Partially contracted basis set               ... on
Rotationally invariant grid construction     ... off
Angular grids for H and He will be reduced by one unit
Diffuse basis detected: some atoms will have their outermost
                        angular grid increased by 1.

Total number of grid points                  ...    23686
Total number of batches                      ...      206
Average number of points per batch           ...      114
Average number of grid points per atom       ...      623
UseSFitting                                  ... on

GRIDX 2
-------
General Integration Accuracy     IntAcc      ... 4.020
Radial Grid Type                 RadialGrid  ... OptM3 with GC (2021)
Angular Grid (max. ang.)         AngularGrid ... 2 (Lebedev-110)
Angular grid pruning method      GridPruning ... 4 (adaptive)
Weight generation scheme         WeightScheme... mBecke (2022)
Basis function cutoff            BFCut       ... 1.0000e-11
Integration weight cutoff        WCut        ... 1.0000e-14
Partially contracted basis set               ... on
Rotationally invariant grid construction     ... off
Angular grids for H and He will be reduced by one unit
Diffuse basis detected: some atoms will have their outermost
                        angular grid increased by 1.

Total number of grid points                  ...    52861
Total number of batches                      ...      435
Average number of points per batch           ...      121
Average number of grid points per atom       ...     1391
UseSFitting                                  ... on

GRIDX 3
-------
General Integration Accuracy     IntAcc      ... 4.338
Radial Grid Type                 RadialGrid  ... OptM3 with GC (2021)
Angular Grid (max. ang.)         AngularGrid ... 3 (Lebedev-194)
Angular grid pruning method      GridPruning ... 4 (adaptive)
Weight generation scheme         WeightScheme... mBecke (2022)
Basis function cutoff            BFCut       ... 1.0000e-11
Integration weight cutoff        WCut        ... 1.0000e-14
Partially contracted basis set               ... on
Rotationally invariant grid construction     ... off
Angular grids for H and He will be reduced by one unit
Diffuse basis detected: some atoms will have their outermost
                        angular grid increased by 1.

Total number of grid points                  ...   117660
Total number of batches                      ...      937
Average number of points per batch           ...      125
Average number of grid points per atom       ...     3096
UseSFitting                                  ... on
Initializing property integral containers    ... done (  0.0 sec)

SHARK setup successfully completed in   9.6 seconds

Maximum memory used throughout the entire STARTUP-calculation: 264.1 MB


           ************************************************************
           *        Program running with 10 parallel MPI-processes    *
           *              working on a common directory               *
           ************************************************************
-------------------------------------------------------------------------------
                                 ORCA GUESS
                   Start orbitals & Density for SCF / CASSCF
-------------------------------------------------------------------------------

------------
SCF SETTINGS
------------
Hamiltonian:
 Density Functional     Method          .... DFT(GTOs)
 Exchange Functional    Exchange        .... PBE
   PBE kappa parameter   XKappa         ....  0.804000
   PBE mue parameter    XMuePBE         ....  0.219520
 Correlation Functional Correlation     .... P86
 LDA part of GGA corr.  LDAOpt          .... VWN-5
 Gradients option       PostSCFGGA      .... off
 Hybrid DFT is turned on
   Fraction HF Exchange ScalHFX         ....  0.690000
   Scaling of DF-GGA-X  ScalDFX         ....  0.310000
   Scaling of DF-GGA-C  ScalDFC         ....  0.422400
   Scaling of DF-LDA-C  ScalLDAC        ....  0.422400
   Perturbative correction              ....  1.000000
 RI-approximation to the Coulomb term is turned on
   Number of AuxJ basis functions       .... 1104
   RIJ-COSX (HFX calculated with COS-X)).... on


General Settings:
 Integral files         IntName         .... r2_frag
 Hartree-Fock type      HFTyp           .... RHF
 Total Charge           Charge          ....    1
 Multiplicity           Mult            ....    1
 Number of Electrons    NEL             ....   40
 Basis Dimension        Dim             .... 1819
 Nuclear Repulsion      ENuc            ....    193.0416198339 Eh

Convergence Acceleration:
 AO-DIIS                CNVDIIS         .... on
   Start iteration      DIISMaxIt       ....    12
   Startup error        DIISStart       ....  0.200000
   # of expansion vecs  DIISMaxEq       ....     5
   Bias factor          DIISBfac        ....   1.050
   Max. coefficient     DIISMaxC        ....  10.000
 MO-DIIS                CNVKDIIS        .... off
 Trust-Rad. Augm. Hess. CNVTRAH         .... auto
   Auto Start mean grad. ratio tolernc. ....  1.125000
   Auto Start start iteration           ....    50
   Auto Start num. interpolation iter.  ....    10
   Max. Number of Micro iterations      ....    24
   Max. Number of Macro iterations      .... Maxiter - #DIIS iter
   Number of Davidson start vectors     ....     2
   Converg. threshold    (grad. norm)   ....   1.000e-05
   Grad. Scal. Fac. for Micro threshold ....   0.100
   Minimum threshold for Micro iter.    ....   1.000e-02
   NR start threshold (gradient norm)   ....   1.000e-04
   Initial trust radius                 ....   0.400
   Minimum AH scaling param. (alpha)    ....   1.000
   Maximum AH scaling param. (alpha)    .... 1000.000
   Quad. conv. algorithm                .... NR
   White noise on init. David. guess    .... on
   Maximum white noise                  ....   0.010
   Pseudo random numbers                .... off
   Inactive MOs                         .... canonical
   Orbital update algorithm             .... Taylor
   Preconditioner                       .... Diag
   Full preconditioner red. dimension   ....   250
 SOSCF                  CNVSOSCF        .... on
   Start iteration      SOSCFMaxIt      ....   150
   Startup grad/error   SOSCFStart      ....  0.003300
   Hessian update       SOSCFHessUp     .... L-BFGS
 Level Shifting         CNVShift        .... on
   Level shift para.    LevelShift      ....    0.2500
   Turn off err/grad.   ShiftErr        ....    0.0010
 Zerner damping         CNVZerner       .... off
 Static damping         CNVDamp         .... on
   Fraction old density DampFac         ....    0.7000
   Max. Damping (<1)    DampMax         ....    0.9800
   Min. Damping (>=0)   DampMin         ....    0.0000
   Turn off err/grad.   DampErr         ....    0.1000

SCF Procedure:
 Maximum # iterations   MaxIter         ....   125
 SCF integral mode      SCFMode         .... Direct
   Integral package                     .... SHARK and LIBINT hybrid scheme
 Reset frequency        DirectResetFreq ....    20
 Integral Threshold     Thresh          ....  1.000e-12 Eh
 Primitive CutOff       TCut            ....  1.000e-13 Eh

Convergence Tolerance:
 Convergence Check Mode ConvCheckMode   .... Total+1el-Energy
 Convergence forced     ConvForced      .... 0
 Energy Change          TolE            ....  1.000e-08 Eh
 1-El. energy change                    ....  1.000e-05 Eh
 Orbital Gradient       TolG            ....  1.000e-05
 Orbital Rotation angle TolX            ....  1.000e-05
 DIIS Error             TolErr          ....  5.000e-07

------------------------------
INITIAL GUESS: MODEL POTENTIAL
------------------------------
Loading Hartree-Fock densities                     ... done
Calculating cut-offs                               ... done
Initializing the effective Hamiltonian             ... done
Setting up the integral package (SHARK)            ... done
Starting the Coulomb interaction                   ... done (   0.6 sec)
Making the grid                                    ... done (   0.3 sec)
Mapping shells                                     ... done
Starting the XC term evaluation                    ... done (   1.2 sec)
  promolecular density results
     # of electrons  =     40.995565010
     EX              =    -32.278378976
     EC              =      0.004165132
     EX+EC           =    -32.274213844
Transforming the Hamiltonian                       ... done (   0.3 sec)
Diagonalizing the Hamiltonian                      ... done (   0.6 sec)
Back transforming the eigenvectors                 ... done (   0.2 sec)
Now organizing SCF variables                       ... done
                      ------------------
                      INITIAL GUESS DONE (   3.4 sec)
                      ------------------
             **** ENERGY FILE WAS UPDATED (r2_frag.en.tmp) ****
Finished Guess after   4.9 sec
Maximum memory used throughout the entire GUESS-calculation: 256.5 MB


           ************************************************************
           *        Program running with 10 parallel MPI-processes    *
           *              working on a common directory               *
           ************************************************************

-------------------------------------------------------------------------------------------
                                      ORCA LEAN-SCF
                              memory conserving SCF solver
-------------------------------------------------------------------------------------------

--------------------
CPCM SOLVATION MODEL
--------------------
CPCM parameters:
  Epsilon                                         ...       3.0000
  Refrac                                          ...       1.3300
  Rsolv                                           ...       1.3000
  Surface type                                    ... GAUSSIAN VDW
  Discretization scheme                           ... Constant charge density
    Threshold for H atoms                         ...       5.0000 (charges/Ang^2)
    Threshold for non-H atoms                     ...       5.0000 (charges/Ang^2)
  Epsilon function type                           ...         CPCM
Solvent:                                          ... CUSTOM
Radii:
  Scheme                                          ... Element-dependent radii
  Radius for C  used is    3.8550 Bohr (=   2.0400 Ang.)
  Radius for O  used is    3.4469 Bohr (=   1.8240 Ang.)
  Radius for P  used is    4.0818 Bohr (=   2.1600 Ang.)
  Radius for H  used is    2.4944 Bohr (=   1.3200 Ang.)
  Radius for N  used is    3.5149 Bohr (=   1.8600 Ang.)
Calculating surface                               ...        done! (  0.0s)
Cavity surface points                             ...         3362
Cavity Volume                                     ...    2251.6812
Cavity Surface-area                               ...    1253.4622
Calculating surface distance matrix               ...        done! (  0.0s)
Performing Cholesky decomposition & store         ...        done! (  0.2s)
Overall time for CPCM initialization              ...                 0.2s

----------------------------------------D-I-I-S--------------------------------------------
Iteration    Energy (Eh)           Delta-E    RMSDP     MaxDP     DIISErr   Damp  Time(sec)
-------------------------------------------------------------------------------------------
               ***  Starting incremental Fock matrix formation  ***
    1    -244.1442256736307854     0.00e+00  4.10e-03  2.80e+00  2.41e-01  0.700  41.3
    2    -244.2070696133700949    -6.28e-02  3.82e-03  2.57e+00  1.40e-01  0.700  25.1
                               ***Turning on AO-DIIS***
    3    -244.2400363778215819    -3.30e-02  2.79e-03  1.53e+00  7.34e-02  0.700  23.7
    4    -244.2599862071900247    -1.99e-02  7.17e-03  3.59e+00  4.88e-02  0.000  22.7
                              *** Initializing SOSCF ***
---------------------------------------S-O-S-C-F--------------------------------------
Iteration    Energy (Eh)           Delta-E    RMSDP     MaxDP     MaxGrad    Time(sec)
--------------------------------------------------------------------------------------
    5    -244.3033150241351450    -4.33e-02  8.27e-04  3.85e-01  2.91e-03    25.2
               *** Restarting incremental Fock matrix formation ***
    6    -244.3033747709367276    -5.97e-05  4.96e-03  2.38e+00  6.06e-04    42.5
    7    -244.3033937527122816    -1.90e-05  1.14e-03  6.89e-01  1.20e-04    37.3
    8    -244.3033966717329122    -2.92e-06  9.56e-04  5.85e-01  4.99e-05    34.0
    9    -244.3033972819660562    -6.10e-07  9.75e-05  6.05e-02  6.91e-06    32.9
   10    -244.3033973244283175    -4.25e-08  3.68e-05  1.89e-02  4.33e-06    26.2
   11    -244.3033973278397184    -3.41e-09  1.21e-05  4.91e-03  8.40e-06    22.9
                 **** Energy Check signals convergence ****

               *****************************************************
               *                     SUCCESS                       *
               *           SCF CONVERGED AFTER  11 CYCLES          *
               *****************************************************

Recomputing exchange energy using gridx3       ... done (   67.437 sec)
Old exchange energy                            :    -22.679225587 Eh
New exchange energy                            :    -22.679215199 Eh
Exchange energy change after final integration :      0.000010388 Eh
Total energy after final integration           :   -244.303386940 Eh
             **** ENERGY FILE WAS UPDATED (r2_frag.en.tmp) ****

----------------
TOTAL SCF ENERGY
----------------

Total Energy       :       -244.30338693965126 Eh           -6647.83313 eV

Components:
Nuclear Repulsion  :        193.04161983388246 Eh            5252.92953 eV
Electronic Energy  :       -437.28005351143241 Eh          -11898.99519 eV
One Electron Energy:       -703.81267403331776 Eh          -19151.71651 eV
Two Electron Energy:        266.53262052188535 Eh            7252.72133 eV
CPCM Dielectric    :         -0.06496365028976 Eh              -1.76775 eV

Virial components:
Potential Energy   :       -487.75286318329114 Eh          -13272.43016 eV
Kinetic Energy     :        243.44947624363988 Eh            6624.59704 eV
Virial Ratio       :          2.00350754788709

DFT components:
N(Alpha)           :       20.000060125870 electrons
N(Beta)            :       20.000060125870 electrons
N(Total)           :       40.000120251740 electrons
E(X)               :      -10.148141073980 Eh       
E(C)               :       -0.618112002627 Eh       
E(XC)              :      -10.766253076606 Eh       

CPCM Solvation Model Properties:
Surface-charge          :         -1.00693191130438
Corrected charge        :         -1.00000000000000
Outlying charge corr.   :          0.00000178083704 Eh               0.00005 eV
Free-energy (cav+disp)  :  This term is not implemented in the current solvation scheme

---------------
SCF CONVERGENCE
---------------

  Last Energy change         ...    3.4114e-09  Tolerance :   1.0000e-08
  Last MAX-Density change    ...    4.9067e-03  Tolerance :   1.0000e-07
  Last RMS-Density change    ...    1.2079e-05  Tolerance :   5.0000e-09
  Last DIIS Error            ...    2.9101e-03  Tolerance :   5.0000e-07
  Last Orbital Gradient      ...    8.3979e-06  Tolerance :   1.0000e-05
  Last Orbital Rotation      ...    2.0539e-06  Tolerance :   1.0000e-05


----------------
ORBITAL ENERGIES
----------------

  NO   OCC          E(Eh)            E(eV) 
   0   2.0000     -15.192274      -413.4028 
   1   2.0000     -15.189465      -413.3263 
   2   2.0000     -15.188672      -413.3048 
   3   2.0000     -11.053311      -300.7759 
   4   2.0000     -10.909806      -296.8709 
   5   2.0000      -1.305733       -35.5308 
   6   2.0000      -1.180435       -32.1213 
   7   2.0000      -1.162776       -31.6407 
   8   2.0000      -0.941449       -25.6181 
   9   2.0000      -0.841101       -22.8875 
  10   2.0000      -0.788400       -21.4534 
  11   2.0000      -0.752091       -20.4654 
  12   2.0000      -0.689103       -18.7514 
  13   2.0000      -0.680806       -18.5257 
  14   2.0000      -0.642410       -17.4809 
  15   2.0000      -0.628813       -17.1109 
  16   2.0000      -0.576993       -15.7008 
  17   2.0000      -0.558262       -15.1911 
  18   2.0000      -0.457853       -12.4588 
  19   2.0000      -0.427600       -11.6356 
  20   0.0000      -0.025185        -0.6853 
  21   0.0000      -0.002229        -0.0607 
  22   0.0000       0.002121         0.0577 
  23   0.0000       0.004841         0.1317 
  24   0.0000       0.019736         0.5370 
  25   0.0000       0.024489         0.6664 
  26   0.0000       0.027806         0.7566 
  27   0.0000       0.032632         0.8880 
  28   0.0000       0.035435         0.9642 
  29   0.0000       0.041018         1.1162 
  30   0.0000       0.042917         1.1678 
*Only the first 10 virtual orbitals were printed.

                    ********************************
                    * MULLIKEN POPULATION ANALYSIS *
                    ********************************

-----------------------
MULLIKEN ATOMIC CHARGES
-----------------------
   0 C :   -0.005744
   1 C :    0.013788
   2 O :    0.000251
   3 O :   -0.003605
   4 O :   -0.003197
   5 O :    0.003066
   6 P :    0.007675
   7 H :   -0.001033
   8 H :    0.008553
   9 H :    0.000870
  10 H :    0.002716
  11 H :   -0.006716
  12 H :   -0.007540
  13 C :   -0.664203
  14 N :   -0.255733
  15 H :    0.221459
  16 C :    0.433106
  17 N :   -0.180487
  18 H :    0.226726
  19 H :    0.178871
  20 N :   -0.159155
  21 H :    0.189704
  22 H :    0.215665
  23 H :    0.537266
  24 H :    0.337439
  25 H :   -0.105051
  26 C :    0.003424
  27 N :    0.012168
  28 N :    0.001291
  29 H :   -0.000097
  30 C :    0.000725
  31 C :   -0.002822
  32 H :    0.009286
  33 C :    0.000964
  34 H :   -0.000403
  35 H :    0.000332
  36 H :   -0.003810
  37 H :   -0.005748
Sum of atomic charges:    1.0000000

--------------------------------
MULLIKEN REDUCED ORBITAL CHARGES
--------------------------------
  0 C s       :     0.000204  s :     0.000204
      pz      :     0.000253  p :     0.007374
      px      :     0.003738
      py      :     0.003383
      dz2     :     0.000217  d :    -0.001834
      dxz     :    -0.000302
      dyz     :    -0.000186
      dx2y2   :     0.000065
      dxy     :    -0.001628
      f0      :     0.000000  f :     0.000001
      f+1     :     0.000000
      f-1     :    -0.000000
      f+2     :     0.000000
      f-2     :    -0.000000
      f+3     :     0.000000
      f-3     :     0.000000
      g0      :     0.000000  g :     0.000000
      g+1     :    -0.000000
      g-1     :    -0.000000
      g+2     :     0.000000
      g-2     :     0.000000
      g+3     :    -0.000000
      g-3     :    -0.000000
      g+4     :     0.000000
      g-4     :     0.000000

  1 C s       :     0.000501  s :     0.000501
      pz      :    -0.007676  p :    -0.017888
      px      :    -0.004193
      py      :    -0.006019
      dz2     :    -0.000071  d :     0.003599
      dxz     :     0.000675
      dyz     :     0.001879
      dx2y2   :     0.000057
      dxy     :     0.001058
      f0      :    -0.000000  f :     0.000000
      f+1     :     0.000000
      f-1     :     0.000000
      f+2     :     0.000000
      f-2     :    -0.000000
      f+3     :    -0.000000
      f-3     :    -0.000000
      g0      :    -0.000000  g :    -0.000000
      g+1     :    -0.000000
      g-1     :    -0.000000
      g+2     :     0.000000
      g-2     :    -0.000000
      g+3     :    -0.000000
      g-3     :    -0.000000
      g+4     :     0.000000
      g-4     :    -0.000000

  2 O s       :    -0.000568  s :    -0.000568
      pz      :    -0.000124  p :    -0.000001
      px      :     0.000005
      py      :     0.000117
      dz2     :     0.000098  d :     0.000319
      dxz     :     0.000039
      dyz     :     0.000016
      dx2y2   :    -0.000013
      dxy     :     0.000179
      f0      :    -0.000000  f :    -0.000000
      f+1     :    -0.000000
      f-1     :    -0.000000
      f+2     :    -0.000000
      f-2     :     0.000000
      f+3     :     0.000000
      f-3     :    -0.000000
      g0      :     0.000000  g :    -0.000000
      g+1     :    -0.000000
      g-1     :    -0.000000
      g+2     :    -0.000000
      g-2     :    -0.000000
      g+3     :    -0.000000
      g-3     :    -0.000000
      g+4     :    -0.000000
      g-4     :     0.000000

  3 O s       :     0.002424  s :     0.002424
      pz      :     0.000569  p :     0.001454
      px      :     0.000465
      py      :     0.000420
      dz2     :    -0.000026  d :    -0.000273
      dxz     :    -0.000083
      dyz     :    -0.000026
      dx2y2   :    -0.000047
      dxy     :    -0.000091
      f0      :    -0.000000  f :    -0.000000
      f+1     :    -0.000000
      f-1     :    -0.000000
      f+2     :     0.000000
      f-2     :    -0.000000
      f+3     :    -0.000000
      f-3     :     0.000000
      g0      :    -0.000000  g :    -0.000000
      g+1     :     0.000000
      g-1     :    -0.000000
      g+2     :    -0.000000
      g-2     :     0.000000
      g+3     :     0.000000
      g-3     :     0.000000
      g+4     :    -0.000000
      g-4     :     0.000000

  4 O s       :    -0.006937  s :    -0.006937
      pz      :    -0.001204  p :     0.002837
      px      :     0.002037
      py      :     0.002004
      dz2     :     0.000839  d :     0.007298
      dxz     :     0.002520
      dyz     :     0.000452
      dx2y2   :     0.002514
      dxy     :     0.000974
      f0      :     0.000000  f :    -0.000001
      f+1     :    -0.000004
      f-1     :     0.000001
      f+2     :    -0.000002
      f-2     :     0.000001
      f+3     :     0.000003
      f-3     :    -0.000001
      g0      :    -0.000000  g :    -0.000000
      g+1     :    -0.000000
      g-1     :    -0.000000
      g+2     :    -0.000000
      g-2     :    -0.000000
      g+3     :    -0.000000
      g-3     :    -0.000000
      g+4     :     0.000000
      g-4     :    -0.000000

  5 O s       :    -0.002596  s :    -0.002596
      pz      :    -0.000066  p :    -0.000370
      px      :    -0.000346
      py      :     0.000042
      dz2     :     0.000045  d :    -0.000099
      dxz     :    -0.000102
      dyz     :    -0.000049
      dx2y2   :     0.000004
      dxy     :     0.000003
      f0      :    -0.000000  f :    -0.000000
      f+1     :     0.000000
      f-1     :    -0.000000
      f+2     :     0.000000
      f-2     :    -0.000000
      f+3     :    -0.000000
      f-3     :    -0.000000
      g0      :    -0.000000  g :    -0.000000
      g+1     :     0.000000
      g-1     :    -0.000000
      g+2     :    -0.000000
      g-2     :     0.000000
      g+3     :    -0.000000
      g-3     :    -0.000000
      g+4     :    -0.000000
      g-4     :    -0.000000

  6 P s       :     0.001353  s :     0.001353
      pz      :     0.002726  p :    -0.004633
      px      :     0.000376
      py      :    -0.007736
      dz2     :    -0.003670  d :    -0.004410
      dxz     :    -0.001205
      dyz     :     0.001705
      dx2y2   :     0.000861
      dxy     :    -0.002101
      f0      :    -0.000012  f :     0.000016
      f+1     :     0.000007
      f-1     :     0.000005
      f+2     :    -0.000012
      f-2     :    -0.000006
      f+3     :     0.000023
      f-3     :     0.000010
      g0      :    -0.000000  g :     0.000000
      g+1     :    -0.000000
      g-1     :     0.000000
      g+2     :     0.000000
      g-2     :     0.000000
      g+3     :     0.000000
      g-3     :     0.000000
      g+4     :    -0.000000
      g-4     :     0.000000

  7 H s       :     0.000665  s :     0.000665
      pz      :     0.000051  p :     0.000367
      px      :     0.000170
      py      :     0.000147
      dz2     :     0.000000  d :    -0.000000
      dxz     :    -0.000000
      dyz     :    -0.000000
      dx2y2   :     0.000000
      dxy     :    -0.000000
      f0      :    -0.000000  f :    -0.000000
      f+1     :     0.000000
      f-1     :     0.000000
      f+2     :    -0.000000
      f-2     :    -0.000000
      f+3     :    -0.000000
      f-3     :    -0.000000

  8 H s       :    -0.007321  s :    -0.007321
      pz      :    -0.000586  p :    -0.001234
      px      :     0.000660
      py      :    -0.001308
      dz2     :     0.000000  d :     0.000002
      dxz     :     0.000001
      dyz     :    -0.000000
      dx2y2   :     0.000001
      dxy     :     0.000001
      f0      :     0.000000  f :    -0.000000
      f+1     :    -0.000000
      f-1     :    -0.000000
      f+2     :    -0.000000
      f-2     :     0.000000
      f+3     :    -0.000000
      f-3     :    -0.000000

  9 H s       :    -0.000712  s :    -0.000712
      pz      :    -0.000152  p :    -0.000158
      px      :    -0.000070
      py      :     0.000065
      dz2     :     0.000000  d :     0.000000
      dxz     :     0.000000
      dyz     :     0.000000
      dx2y2   :     0.000000
      dxy     :    -0.000000
      f0      :     0.000000  f :    -0.000000
      f+1     :     0.000000
      f-1     :    -0.000000
      f+2     :     0.000000
      f-2     :    -0.000000
      f+3     :    -0.000000
      f-3     :    -0.000000

 10 H s       :    -0.001896  s :    -0.001896
      pz      :    -0.000450  p :    -0.000821
      px      :    -0.000126
      py      :    -0.000245
      dz2     :    -0.000000  d :     0.000000
      dxz     :     0.000000
      dyz     :     0.000000
      dx2y2   :     0.000000
      dxy     :     0.000000
      f0      :    -0.000000  f :    -0.000000
      f+1     :     0.000000
      f-1     :    -0.000000
      f+2     :     0.000000
      f-2     :    -0.000000
      f+3     :    -0.000000
      f-3     :    -0.000000

 11 H s       :     0.006229  s :     0.006229
      pz      :     0.001200  p :     0.000487
      px      :    -0.000040
      py      :    -0.000674
      dz2     :     0.000000  d :     0.000000
      dxz     :     0.000000
      dyz     :     0.000000
      dx2y2   :     0.000000
      dxy     :     0.000000
      f0      :     0.000000  f :    -0.000000
      f+1     :    -0.000000
      f-1     :    -0.000000
      f+2     :     0.000000
      f-2     :     0.000000
      f+3     :     0.000000
      f-3     :     0.000000

 12 H s       :     0.006609  s :     0.006609
      pz      :     0.000444  p :     0.000931
      px      :    -0.000501
      py      :     0.000988
      dz2     :    -0.000000  d :     0.000000
      dxz     :     0.000000
      dyz     :     0.000000
      dx2y2   :    -0.000000
      dxy     :     0.000000
      f0      :    -0.000000  f :     0.000000
      f+1     :     0.000000
      f-1     :    -0.000000
      f+2     :    -0.000000
      f-2     :     0.000000
      f+3     :     0.000000
      f-3     :     0.000000

 13 C s       :     3.254823  s :     3.254823
      pz      :     0.774342  p :     3.295497
      px      :     1.185282
      py      :     1.335873
      dz2     :     0.013652  d :     0.101541
      dxz     :     0.027718
      dyz     :     0.018919
      dx2y2   :     0.017994
      dxy     :     0.023258
      f0      :     0.003241  f :     0.011259
      f+1     :     0.003238
      f-1     :     0.001928
      f+2     :     0.000765
      f-2     :     0.000513
      f+3     :    -0.000025
      f-3     :     0.001598
      g0      :     0.000316  g :     0.001084
      g+1     :     0.000290
      g-1     :     0.000156
      g+2     :     0.000085
      g-2     :     0.000079
      g+3     :     0.000010
      g-3     :     0.000081
      g+4     :     0.000029
      g-4     :     0.000039

 14 N s       :     3.657766  s :     3.657766
      pz      :     1.108086  p :     3.543492
      px      :     1.361714
      py      :     1.073691
      dz2     :     0.020278  d :     0.045797
      dxz     :     0.001786
      dyz     :     0.009738
      dx2y2   :     0.009782
      dxy     :     0.004214
      f0      :     0.001488  f :     0.008214
      f+1     :     0.001578
      f-1     :     0.001668
      f+2     :     0.000886
      f-2     :     0.001010
      f+3     :     0.000611
      f-3     :     0.000974
      g0      :     0.000102  g :     0.000464
      g+1     :     0.000077
      g-1     :     0.000074
      g+2     :     0.000014
      g-2     :     0.000032
      g+3     :     0.000044
      g-3     :     0.000043
      g+4     :     0.000044
      g-4     :     0.000033

 15 H s       :     0.715183  s :     0.715183
      pz      :     0.009314  p :     0.054686
      px      :     0.016613
      py      :     0.028759
      dz2     :     0.001705  d :     0.007992
      dxz     :     0.000679
      dyz     :     0.001740
      dx2y2   :     0.000932
      dxy     :     0.002936
      f0      :     0.000021  f :     0.000680
      f+1     :     0.000005
      f-1     :     0.000212
      f+2     :     0.000083
      f-2     :     0.000119
      f+3     :     0.000182
      f-3     :     0.000057

 16 C s       :     3.148800  s :     3.148800
      pz      :     0.699592  p :     2.065597
      px      :     0.703140
      py      :     0.662864
      dz2     :     0.118677  d :     0.311361
      dxz     :     0.008836
      dyz     :     0.054156
      dx2y2   :     0.067951
      dxy     :     0.061740
      f0      :     0.005352  f :     0.037653
      f+1     :     0.003481
      f-1     :     0.007843
      f+2     :     0.006224
      f-2     :     0.004184
      f+3     :     0.005879
      f-3     :     0.004690
      g0      :     0.000428  g :     0.003484
      g+1     :     0.000322
      g-1     :     0.000304
      g+2     :     0.000445
      g-2     :     0.000397
      g+3     :     0.000472
      g-3     :     0.000416
      g+4     :     0.000318
      g-4     :     0.000382

 17 N s       :     3.529047  s :     3.529047
      pz      :     1.331207  p :     3.630205
      px      :     1.278589
      py      :     1.020408
      dz2     :     0.000633  d :     0.015101
      dxz     :     0.005806
      dyz     :     0.001593
      dx2y2   :     0.000463
      dxy     :     0.006607
      f0      :     0.000491  f :     0.005838
      f+1     :     0.000362
      f-1     :     0.000999
      f+2     :     0.000845
      f-2     :     0.001160
      f+3     :     0.001091
      f-3     :     0.000890
      g0      :     0.000025  g :     0.000295
      g+1     :     0.000004
      g-1     :     0.000042
      g+2     :     0.000037
      g-2     :     0.000008
      g+3     :     0.000034
      g-3     :     0.000053
      g+4     :     0.000053
      g-4     :     0.000039

 18 H s       :     0.712454  s :     0.712454
      pz      :     0.033327  p :     0.052043
      px      :     0.013368
      py      :     0.005347
      dz2     :     0.003044  d :     0.008059
      dxz     :     0.000932
      dyz     :     0.001405
      dx2y2   :     0.001429
      dxy     :     0.001249
      f0      :     0.000148  f :     0.000718
      f+1     :     0.000131
      f-1     :     0.000087
      f+2     :     0.000144
      f-2     :     0.000105
      f+3     :     0.000057
      f-3     :     0.000045

 19 H s       :     0.753440  s :     0.753440
      pz      :     0.036640  p :     0.059019
      px      :     0.018351
      py      :     0.004027
      dz2     :     0.001598  d :     0.007984
      dxz     :     0.001054
      dyz     :     0.001568
      dx2y2   :     0.002594
      dxy     :     0.001170
      f0      :     0.000024  f :     0.000687
      f+1     :     0.000116
      f-1     :     0.000107
      f+2     :     0.000122
      f-2     :     0.000081
      f+3     :     0.000113
      f-3     :     0.000124

 20 N s       :     3.545536  s :     3.545536
      pz      :     1.170467  p :     3.580044
      px      :     1.340430
      py      :     1.069147
      dz2     :     0.009398  d :     0.027726
      dxz     :     0.006614
      dyz     :    -0.001007
      dx2y2   :     0.007607
      dxy     :     0.005113
      f0      :     0.001109  f :     0.005546
      f+1     :     0.001017
      f-1     :     0.000606
      f+2     :     0.000882
      f-2     :     0.001073
      f+3     :     0.000446
      f-3     :     0.000412
      g0      :     0.000041  g :     0.000303
      g+1     :     0.000072
      g-1     :     0.000035
      g+2     :     0.000043
      g-2     :     0.000051
      g+3     :     0.000023
      g-3     :     0.000024
      g+4     :     0.000009
      g-4     :     0.000006

 21 H s       :     0.744840  s :     0.744840
      pz      :     0.022261  p :     0.056853
      px      :     0.013438
      py      :     0.021154
      dz2     :     0.000617  d :     0.007913
      dxz     :     0.000237
      dyz     :     0.003134
      dx2y2   :     0.001120
      dxy     :     0.002805
      f0      :     0.000078  f :     0.000690
      f+1     :     0.000019
      f-1     :     0.000091
      f+2     :     0.000148
      f-2     :     0.000039
      f+3     :     0.000208
      f-3     :     0.000108

 22 H s       :     0.742253  s :     0.742253
      pz      :    -0.001377  p :     0.033539
      px      :     0.020412
      py      :     0.014504
      dz2     :     0.001792  d :     0.007857
      dxz     :     0.001015
      dyz     :     0.001623
      dx2y2   :     0.002453
      dxy     :     0.000974
      f0      :     0.000024  f :     0.000686
      f+1     :     0.000098
      f-1     :     0.000130
      f+2     :     0.000121
      f-2     :     0.000084
      f+3     :     0.000076
      f-3     :     0.000152

 23 H s       :     0.436045  s :     0.436045
      pz      :    -0.016259  p :     0.022960
      px      :     0.006651
      py      :     0.032568
      dz2     :     0.000753  d :     0.003497
      dxz     :     0.000244
      dyz     :     0.000834
      dx2y2   :     0.000420
      dxy     :     0.001246
      f0      :     0.000012  f :     0.000232
      f+1     :     0.000004
      f-1     :     0.000063
      f+2     :     0.000028
      f-2     :     0.000028
      f+3     :     0.000087
      f-3     :     0.000012

 24 H s       :     0.605961  s :     0.605961
      pz      :     0.000552  p :     0.052401
      px      :     0.043411
      py      :     0.008437
      dz2     :     0.001101  d :     0.003959
      dxz     :     0.000450
      dyz     :     0.000532
      dx2y2   :     0.001355
      dxy     :     0.000522
      f0      :     0.000015  f :     0.000240
      f+1     :     0.000043
      f-1     :     0.000031
      f+2     :     0.000055
      f-2     :     0.000015
      f+3     :     0.000071
      f-3     :     0.000010

 25 H s       :     1.016531  s :     1.016531
      pz      :     0.006921  p :     0.084543
      px      :     0.049547
      py      :     0.028075
      dz2     :     0.000333  d :     0.003738
      dxz     :     0.001116
      dyz     :     0.000287
      dx2y2   :     0.001212
      dxy     :     0.000791
      f0      :     0.000030  f :     0.000239
      f+1     :     0.000023
      f-1     :     0.000014
      f+2     :     0.000019
      f-2     :     0.000028
      f+3     :     0.000108
      f-3     :     0.000017

 26 C s       :    -0.000338  s :    -0.000338
      pz      :    -0.003117  p :    -0.003872
      px      :    -0.002405
      py      :     0.001650
      dz2     :    -0.000218  d :     0.000785
      dxz     :     0.000645
      dyz     :    -0.000367
      dx2y2   :    -0.000061
      dxy     :     0.000787
      f0      :     0.000000  f :     0.000001
      f+1     :    -0.000000
      f-1     :     0.000000
      f+2     :     0.000000
      f-2     :     0.000000
      f+3     :    -0.000000
      f-3     :     0.000000
      g0      :     0.000000  g :    -0.000000
      g+1     :    -0.000000
      g-1     :     0.000000
      g+2     :    -0.000000
      g-2     :     0.000000
      g+3     :    -0.000000
      g-3     :     0.000000
      g+4     :     0.000000
      g-4     :     0.000000

 27 N s       :    -0.005180  s :    -0.005180
      pz      :    -0.001252  p :     0.000810
      px      :     0.001788
      py      :     0.000274
      dz2     :    -0.000113  d :    -0.007797
      dxz     :    -0.006151
      dyz     :     0.000271
      dx2y2   :    -0.002829
      dxy     :     0.001024
      f0      :    -0.000000  f :    -0.000001
      f+1     :     0.000000
      f-1     :    -0.000000
      f+2     :     0.000000
      f-2     :    -0.000001
      f+3     :     0.000000
      f-3     :    -0.000000
      g0      :     0.000000  g :    -0.000000
      g+1     :    -0.000000
      g-1     :     0.000000
      g+2     :    -0.000000
      g-2     :    -0.000000
      g+3     :    -0.000000
      g-3     :     0.000000
      g+4     :    -0.000000
      g-4     :     0.000000

 28 N s       :    -0.001219  s :    -0.001219
      pz      :     0.000052  p :    -0.000083
      px      :    -0.000127
      py      :    -0.000009
      dz2     :    -0.000016  d :     0.000012
      dxz     :    -0.000016
      dyz     :     0.000027
      dx2y2   :     0.000013
      dxy     :     0.000004
      f0      :    -0.000000  f :    -0.000000
      f+1     :     0.000000
      f-1     :    -0.000000
      f+2     :    -0.000000
      f-2     :    -0.000000
      f+3     :    -0.000000
      f-3     :     0.000000
      g0      :    -0.000000  g :    -0.000000
      g+1     :    -0.000000
      g-1     :    -0.000000
      g+2     :    -0.000000
      g-2     :    -0.000000
      g+3     :    -0.000000
      g-3     :    -0.000000
      g+4     :    -0.000000
      g-4     :    -0.000000

 29 H s       :     0.000099  s :     0.000099
      pz      :     0.000016  p :    -0.000003
      px      :    -0.000018
      py      :    -0.000000
      dz2     :     0.000000  d :     0.000000
      dxz     :     0.000000
      dyz     :     0.000000
      dx2y2   :    -0.000000
      dxy     :    -0.000000
      f0      :    -0.000000  f :    -0.000000
      f+1     :    -0.000000
      f-1     :    -0.000000
      f+2     :    -0.000000
      f-2     :    -0.000000
      f+3     :    -0.000000
      f-3     :    -0.000000

 30 C s       :     0.000751  s :     0.000751
      pz      :    -0.008483  p :    -0.003563
      px      :     0.004429
      py      :     0.000491
      dz2     :    -0.001606  d :     0.002087
      dxz     :     0.002837
      dyz     :     0.000205
      dx2y2   :    -0.000794
      dxy     :     0.001445
      f0      :    -0.000000  f :    -0.000000
      f+1     :     0.000000
      f-1     :    -0.000000
      f+2     :    -0.000000
      f-2     :    -0.000000
      f+3     :    -0.000000
      f-3     :    -0.000000
      g0      :    -0.000000  g :    -0.000000
      g+1     :    -0.000000
      g-1     :    -0.000000
      g+2     :    -0.000000
      g-2     :     0.000000
      g+3     :    -0.000000
      g-3     :     0.000000
      g+4     :     0.000000
      g-4     :     0.000000

 31 C s       :    -0.000395  s :    -0.000395
      pz      :    -0.005677  p :     0.002835
      px      :     0.006731
      py      :     0.001782
      dz2     :    -0.000340  d :     0.000385
      dxz     :    -0.000899
      dyz     :     0.000965
      dx2y2   :     0.000069
      dxy     :     0.000590
      f0      :    -0.000000  f :    -0.000003
      f+1     :    -0.000001
      f-1     :     0.000000
      f+2     :    -0.000002
      f-2     :     0.000000
      f+3     :    -0.000000
      f-3     :    -0.000000
      g0      :     0.000000  g :     0.000000
      g+1     :    -0.000000
      g-1     :     0.000000
      g+2     :    -0.000000
      g-2     :     0.000000
      g+3     :     0.000000
      g-3     :    -0.000000
      g+4     :     0.000000
      g-4     :    -0.000000

 32 H s       :    -0.009027  s :    -0.009027
      pz      :    -0.001439  p :    -0.000258
      px      :     0.001174
      py      :     0.000006
      dz2     :     0.000000  d :    -0.000001
      dxz     :    -0.000001
      dyz     :     0.000000
      dx2y2   :    -0.000000
      dxy     :    -0.000000
      f0      :     0.000000  f :    -0.000000
      f+1     :    -0.000000
      f-1     :    -0.000000
      f+2     :    -0.000000
      f-2     :    -0.000000
      f+3     :     0.000000
      f-3     :     0.000000

 33 C s       :     0.000267  s :     0.000267
      pz      :    -0.000300  p :    -0.000038
      px      :     0.000430
[...]
      pz      :     0.000027  p :     0.000342
      px      :     0.000286
      py      :     0.000029
      dz2     :     0.000000  d :     0.000001
      dxz     :     0.000000
      dyz     :     0.000000
      dx2y2   :     0.000000
      dxy     :     0.000000
      f0      :     0.000000  f :     0.000000
      f+1     :     0.000000
      f-1     :     0.000000
      f+2     :     0.000000
      f-2     :     0.000000
      f+3     :     0.000000
      f-3     :     0.000000



                      *****************************
                      * MAYER POPULATION ANALYSIS *
                      *****************************

  NA   - Mulliken gross atomic population
  ZA   - Total nuclear charge
  QA   - Mulliken gross atomic charge
  VA   - Mayer's total valence
  BVA  - Mayer's bonded valence
  FA   - Mayer's free valence

  ATOM       NA         ZA         QA         VA         BVA        FA
  0 C      0.0057     0.0000    -0.0057     0.0115     0.0115     0.0000
  1 C     -0.0138     0.0000     0.0138    -0.0278    -0.0278    -0.0000
  2 O     -0.0003     0.0000     0.0003    -0.0005    -0.0005    -0.0000
  3 O      0.0036     0.0000    -0.0036     0.0072     0.0072     0.0000
  4 O      0.0032     0.0000    -0.0032     0.0063     0.0063     0.0000
  5 O     -0.0031     0.0000     0.0031    -0.0061    -0.0061    -0.0000
  6 P     -0.0077     0.0000     0.0077    -0.0155    -0.0155    -0.0000
  7 H      0.0010     0.0000    -0.0010     0.0021     0.0021    -0.0000
  8 H     -0.0086     0.0000     0.0086    -0.0172    -0.0172     0.0000
  9 H     -0.0009     0.0000     0.0009    -0.0017    -0.0017    -0.0000
 10 H     -0.0027     0.0000     0.0027    -0.0054    -0.0054     0.0000
 11 H      0.0067     0.0000    -0.0067     0.0134     0.0134    -0.0000
 12 H      0.0075     0.0000    -0.0075     0.0150     0.0150     0.0000
 13 C      6.6642     6.0000    -0.6642     3.8359     3.8359     0.0000
 14 N      7.2557     7.0000    -0.2557     2.8939     2.8939     0.0000
 15 H      0.7785     1.0000     0.2215     0.9893     0.9893     0.0000
 16 C      5.5669     6.0000     0.4331     3.6991     3.6991     0.0000
 17 N      7.1805     7.0000    -0.1805     3.0506     3.0506     0.0000
 18 H      0.7733     1.0000     0.2267     1.0092     1.0092     0.0000
 19 H      0.8211     1.0000     0.1789     0.9822     0.9822     0.0000
 20 N      7.1592     7.0000    -0.1592     3.1017     3.1017     0.0000
 21 H      0.8103     1.0000     0.1897     1.0171     1.0171    -0.0000
 22 H      0.7843     1.0000     0.2157     0.8843     0.8843    -0.0000
 23 H      0.4627     1.0000     0.5373     0.5594     0.5594     0.0000
 24 H      0.6626     1.0000     0.3374     0.9682     0.9682    -0.0000
 25 H      1.1051     1.0000    -0.1051     1.3658     1.3658    -0.0000
 26 C     -0.0034     0.0000     0.0034    -0.0069    -0.0069     0.0000
 27 N     -0.0122     0.0000     0.0122    -0.0244    -0.0244    -0.0000
 28 N     -0.0013     0.0000     0.0013    -0.0026    -0.0026     0.0000
 29 H      0.0001     0.0000    -0.0001     0.0002     0.0002    -0.0000
 30 C     -0.0007     0.0000     0.0007    -0.0015    -0.0015     0.0000
 31 C      0.0028     0.0000    -0.0028     0.0056     0.0056    -0.0000
 32 H     -0.0093     0.0000     0.0093    -0.0187    -0.0187    -0.0000
 33 C     -0.0010     0.0000     0.0010    -0.0019    -0.0019     0.0000
 34 H      0.0004     0.0000    -0.0004     0.0008     0.0008     0.0000
 35 H     -0.0003     0.0000     0.0003    -0.0007    -0.0007    -0.0000
 36 H      0.0038     0.0000    -0.0038     0.0076     0.0076    -0.0000
 37 H      0.0057     0.0000    -0.0057     0.0115     0.0115     0.0000

  Mayer bond orders larger than 0.100000
B( 13-C , 14-N ) :   1.0622 B( 13-C , 23-H ) :   0.6569 B( 13-C , 24-H ) :   0.7774 
B( 13-C , 25-H ) :   1.3194 B( 14-N , 15-H ) :   0.9316 B( 14-N , 16-C ) :   1.0440 
B( 14-N , 23-H ) :  -0.1115 B( 16-C , 17-N ) :   1.3076 B( 16-C , 20-N ) :   1.2816 
B( 17-N , 18-H ) :   0.9320 B( 17-N , 19-H ) :   0.9838 B( 20-N , 21-H ) :   0.9809 
B( 20-N , 22-H ) :   0.9737 B( 24-H , 25-H ) :   0.1145 

-------
TIMINGS
-------

Total SCF time: 0 days 0 hours 6 min 45 sec 

Total time                  ....     405.006 sec
Sum of individual times     ....     405.839 sec  (100.2%)

SCF preparation             ....       1.396 sec  (  0.3%)
Fock matrix formation       ....     384.266 sec  ( 94.9%)
  Startup                   ....       0.639 sec  (  0.2% of F)
  Split-RI-J                ....      18.177 sec  (  4.7% of F)
  Chain of spheres X        ....     298.062 sec  ( 77.6% of F)
  XC integration            ....      41.507 sec  ( 10.8% of F)
    XC Preparation          ....       0.000 sec  (  0.0% of XC)
    Basis function eval.    ....       3.984 sec  (  9.6% of XC)
    Density eval.           ....      13.476 sec  ( 32.5% of XC)
    XC-Functional eval.     ....       0.083 sec  (  0.2% of XC)
    XC-Potential eval.      ....      14.876 sec  ( 35.8% of XC)
  CPCM terms                ....      24.362 sec  (  6.3% of F)
Diagonalization             ....       0.000 sec  (  0.0%)
Density matrix formation    ....       1.641 sec  (  0.4%)
Total Energy calculation    ....       0.892 sec  (  0.2%)
Population analysis         ....       0.826 sec  (  0.2%)
Orbital Transformation      ....       2.799 sec  (  0.7%)
Orbital Orthonormalization  ....       0.000 sec  (  0.0%)
DIIS solution               ....       8.483 sec  (  2.1%)
SOSCF solution              ....       5.399 sec  (  1.3%)
Finished LeanSCF after 405.5 sec

Maximum memory used throughout the entire LEANSCF-calculation: 412.7 MB


           ************************************************************
           *        Program running with 10 parallel MPI-processes    *
           *              working on a common directory               *
           ************************************************************

------------------------------------------------------------------------------
                                ORCA  MP2 
------------------------------------------------------------------------------

Freezing NCore=10 chemical core electrons

-------------
RI-MP2 ENERGY
-------------
Dimension of the orbital basis            ... 1819
Dimension of the AuxC basis               ... 4152
Memory devoted to MP2                     ... 2000 MB   
Data format for matrix containers         ... DOUBLE
Compression type for matrix containers    ... UNCOMPRESSED
Scaling for aa/bb pairs                   ...   5.660e-02
Scaling for ab pairs                      ...   5.935e-01
Overall scaling of the MP2 energy         ...   1.000e+00

-----------------------
SHARK RI TRANSFORMATION
-----------------------

Number of basis functions                ...   1819
Number of aux functions                  ...   4152
Number of operators                      ...      1
Generation of IJK                        ... NO
Generation of IAK                        ... YES
Generation of ABK                        ... NO
Orbital Range Operator  0:    5-  19 to   20-1818

Aux basis identifier                     ...   AUXC
Contraction scheme used                  ... SEGMENTED
Do orthogonalization                     ... YES
All operator combinations                ... NO
Transpose (ia|K)                         ... NO
Integral generator used                  ... LIBINT
Starting integral generation + trafo... 
Half trafo (segmented) done. Total time = 35.1 sec. integrals=  9.9 sec trafo= 13.1 sec
Integral generation and half transformation done ( 35.1 sec)

Reading or making V^(-1/2)          ... done (  0.2 sec)
Sorting IAK integrals               ... done (  6.2 sec)

SHARK RI integral transformation done. Total time = 41.5 sec.

Opening buffers                              ... done

Starting loop over batches of integrals:

Operator 0  - window                       ... (  5- 19)x( 20-1818)
Operator 0  - Memory available             ...  2000 MB
Operator 0  - Memory needed per MO         ...  57.0 MB
Operator 0  - Number of orbitals per batch ... 2
Operator 0  - Number of batches            ... 1

OPERATOR  0   PASS   0:  MOs     5 ...    6 +    7 ...    8 +    9 ...   10 +   11 ...   12
                            +   13 ...   14 +   15 ...   16 +   17 ...   18 +   19 ...   19
  Reading integrals       ... ok
Time spent in pair loops =    33.526 sec
Deleting buffers (Ka|jb) ...done

-----------------------------------------------
 RI-MP2 CORRELATION ENERGY:     -0.529378650 Eh
-----------------------------------------------


-------
TIMINGS
-------

Total time                :   82.833 sec
Integral trafo            :   41.594 sec ( 50.2%)
I/O of integrals          :    0.063 sec (  0.1%)
K(i,j) operators          :    1.290 sec (  1.6%)
T(i,j) pair energies      :    0.102 sec (  0.1%)
V**(-1/2)                 :    7.712 sec (  9.3%)


---------------------------------------
MP2 TOTAL ENERGY:     -244.832765589 Eh
---------------------------------------

Maximum memory used throughout the entire MP2-calculation: 536.7 MB


-------------------------------------------------------------------------------
                          DFT DISPERSION CORRECTION                            
                                                                               
                                DFTD4 V3.4.0                                   
-------------------------------------------------------------------------------
The REV-DSD-PBEP86-2021 functional is recognized
A user input s6-coefficient scaling factor has been recognized
A user input a1-coefficient scaling factor has been recognized
A user input s8-coefficient scaling factor has been recognized
A user input a2-coefficient scaling factor has been recognized
A user input s9-coefficient scaling factor has been recognized
Active option DFTDOPT                   ...         5   

-------------------------   ----------------
Dispersion correction           -0.005093255
-------------------------   ----------------


-------------------------   --------------------
FINAL SINGLE POINT ENERGY      -244.837858844547
-------------------------   --------------------



           ************************************************************
           *        Program running with 10 parallel MPI-processes    *
           *              working on a common directory               *
           ************************************************************

------------------------------------------------------------------------------
                              ORCA PROPERTY CALCULATIONS
------------------------------------------------------------------------------

GBWName                                 ... r2_frag.gbw
Number of atoms                         ...     38
Number of basis functions               ...   1819
Max core memory                         ...   2000 MB

Electric properties:
Dipole moment                           ... YES
Quadrupole moment                       ...  NO
Static polarizability (Dipole/Dipole)   ...  NO
Static polarizability (Dipole/Quad.)    ...  NO
Static polarizability (Quad./Quad.)     ...  NO
Static polarizability (Velocity)        ...  NO

Atomic electric properties:
Dipole moment                           ...  NO
Quadrupole moment                       ...  NO
Static polarizability                   ...  NO

Choice of electric origin               ... Center of mass
Position of electric origin             ...     6.414059     0.757211     5.920866

General magnetic properties:
Magnetizability                         ...  NO

EPR properties:
g-Tensor (aka g-matrix)                 ...  NO
Zero-Field splitting spin-orbit         ...  NO
Zero-field splitting spin-spin          ...  NO
Hyperfine couplings                     ...  NO (   0 nuclei)
Quadrupole couplings                    ...  NO (   0 nuclei)
Contact density                         ...  NO (   0 nuclei)

NMR properties:
Chemical shifts                         ...  NO (   0 nuclei)
Spin-rotation constants                 ...  NO (   0 nuclei)
Spin-spin couplings                     ...  NO (   0 nuclei,    0 pairs)

Choice of magnetic origin               ... GIAO
Position of magnetic origin             ...     0.000000     0.000000     0.000000

Properties with geometric perturbations:
SCF Hessian                             ...  NO
IR spectrum                             ...  NO
VCD spectrum                            ...  NO
X-ray spectroscopy properties:
SCF XES/XAS/RIXS spectra                ...  NO


-------------
DIPOLE MOMENT
-------------

Method             : SCF
Type of density    : Electron Density
Multiplicity       :   1
Irrep              :   0
Energy             :  -244.3033869396512614 Eh
Relativity type    : 
Basis              : AO
                                X                 Y                 Z
Electronic contribution:     -0.976916583       0.805788021       2.567621343
Nuclear contribution   :      0.290794521      -0.668317826      -2.248156312
                        -----------------------------------------
Total Dipole Moment    :     -0.686122062       0.137470195       0.319465032
                        -----------------------------------------
Magnitude (a.u.)       :      0.769233024
Magnitude (Debye)      :      1.955234962



--------------------
Rotational spectrum 
--------------------
 
Rotational constants in cm-1:             0.310188             0.131293             0.095326 
Rotational constants in MHz :          9299.210899          3936.055205          2857.807071 

Dipole components along the rotational axes: 
x,y,z [a.u.] :     0.652248    -0.014151     0.407543 
x,y,z [Debye]:     1.657883    -0.035970     1.035893 

 

Dipole moment calculation done in   0.2 sec 

Maximum memory used throughout the entire PROP-calculation: 272.0 MB

--------------------------------
SUGGESTED CITATIONS FOR THIS RUN
--------------------------------

Below you find a list of papers that are relevant to this ORCA run
We neither can nor want to force you to cite these papers, but we appreciate if you do
You receive ORCA, which is the product of decades of hard work by many enthusiastic individuals, for free
The only thing we kindly ask in return is that you cite our papers,
We deeply appreciate it, if you show your appreciation for ORCA by not just citing the generic ORCA reference.

Please note that relegating all ORCA citations to the supporting information does *not* help us.
SI sections are not indexed - citations you put there will not count into any citation statistics
But we need these citations in order to attract the funding resources that allow us to do what we are doing

Therefore, if you are a happy ORCA user, please consider citing a few of the papers listed below in the main body of your paper

In addition to the list printed below, the program has created the file r2_frag.bibtex that contains the list in bibtex format
You can import this file easily into all common literature databanks and citation aid programs


List of essential papers. We consider these as the minimum necessary citations

  1. Neese,F.
     Software update: the ORCA program system, version 5.0
     WIRES Comput. Molec. Sci., 2022 12(1)e1606
     doi.org/10.1002/wcms.1606

List of papers to cite with high priority. The work reported in these papers was absolutely
necessary for this run to complete.
Our perspective: the developers of density functionals and basis sets usually get cited in chemistry papers
Good! But without the algorithms to do something with them, the functionals or basis sets would not do anything.
Hence, in our opinion, the algorithm design and method developments papers are equally worthy of getting cited

  1. Neese,F.
     An improvement of the resolution of the identity approximation for the formation of the Coulomb matrix
     J. Comp. Chem., 2003 24(14)1740-1747
     doi.org/10.1002/jcc.10318
  2. Neese,F.; Wennmohs,F.; Hansen,A.; Becker,U.
     Efficient, approximate and parallel Hartree-Fock and hybrid DFT calculations. A 'chain-of-spheres' algorithm for the Hartree-Fock exchange
     Chem. Phys., 2009 356(1-3)98-109
     doi.org/10.1016/j.chemphys.2008.10.036
  3. Kossmann,S.; Neese,F.
     Efficient Structure Optimization with Second-Order Many-Body Perturbation Theory: The RIJCOSX-MP2 Method
     J. Theo. Comp. Chem., 2010 6 2325-2338
     doi.org/10.1021/ct100199k
  4. Garcia-Rates,M.; Neese,F.
     Effect of the Solute Cavity on the Solvation Energy and its Derivatives within the Framework of the Gaussian Charge Scheme
     J. Comput. Chem., 2020 41 922-939
     doi.org/10.1002/jcc.26139
  5. Helmich-Paris,B.; de Souza,B.; Neese,F.; Izsák,R.
     An improved chain of spheres for exchange algorithm
     J. Chem. Phys., 2021 155 104109
     doi.org/doi: 10.1063/5.0058766.
  6. Neese,F.
     The SHARK Integral Generation and Digestion System
     J. Comp. Chem., 2022  1-16
     doi.org/10.1002/jcc.26942
  7. Caldeweyher,E.; Bannwarth,C.; Grimme,S.
     Extension of the D3 dispersion coefficient model
     J. Chem. Phys., 2017 147 034112
     doi.org/10.1063/1.4993215
  8. Caldeweyher,E.; Ehlert,S.; Hansen,A.; Neugebauer,H.; Spicher,S.; Bannwarth,C.; Grimme,S.
     A generally applicable atomic-charge dependent London dispersion correction
     J. Chem. Phys., 2019 150 154122
     doi.org/10.1063/1.5090222
  9. Caldeweyher,E.; Mewes,J.; Ehlert,S.; Grimme,S.
     Extension and evaluation of the D4 London-dispersion model for periodic systems
     Phys. Chem. Chem. Phys., 2020 22(16)8499-8512
     doi.org/10.1039/D0CP00502A
 10. Wittmann,L.; Gordiy,I.; Friede,M.; Helmich-Paris,B.; Grimme,S.; Hansen,A.; Bursch,M.
     Extension of the D3 and D4 London Dispersion Corrections to the full Actinides Series
     Phys. Chem. Chem. Phys., 2024 26(32)21379-21394
     doi.org/https://doi.org/10.1039/D4CP01514B 

List of suggested additional citations. These are papers that are important in the 'surrounding' of 
of this run, or papers that preceded the highly important papers. If you like your results we are grateful for a citation.

  1. Izsak,R.; Neese,F.
     An overlap fitted chain of spheres exchange method
     J. Chem. Phys., 2011 135 144105
     doi.org/10.1063/1.3646921
  2. Izsak,R.; Hansen,A.; Neese,F.
     The resolution of identity and chain of spheres approximations for the LPNO-CCSD singles Fock term
     Molec. Phys., 2012 110 2413-2417
     doi.org/10.1080/00268976.2012.687466
  3. Neese,F.
     The ORCA program system
     WIRES Comput. Molec. Sci., 2012 2(1)73-78
     doi.org/10.1002/wcms.81
  4. Izsak,R.; Neese,F.; Klopper,W.
     Robust fitting techniques in the chain of spheres approximation to the Fock exchange: The role of the complementary space
     J. Chem. Phys., 2013 139 
     doi.org/10.1063/1.4819264
  5. Neese,F.
     Software update: the ORCA program system, version 4.0
     WIRES Comput. Molec. Sci., 2018 8(1)1-6
     doi.org/10.1002/wcms.1327
  6. Neese,F.; Wennmohs,F.; Becker,U.; Riplinger,C.
     The ORCA quantum chemistry program package
     J. Chem. Phys., 2020 152 Art. No. L224108
     doi.org/10.1063/5.0004608

List of optional additional citations

  1. Neese,F.
     Approximate second-order SCF convergence for spin unrestricted wavefunctions
     Chem. Phys. Lett., 2000 325(1-3)93-98
     doi.org/10.1016/s0009-2614(00)00662-x

Timings for individual modules:

Sum of individual times          ...      507.685 sec (=   8.461 min)
Startup calculation              ...       10.554 sec (=   0.176 min)   2.1 %
SCF iterations                   ...      411.188 sec (=   6.853 min)  81.0 %
Property calculations            ...        1.643 sec (=   0.027 min)   0.3 %
MP2 module                       ...       84.301 sec (=   1.405 min)  16.6 %
                             ****ORCA TERMINATED NORMALLY****
TOTAL RUN TIME: 0 days 0 hours 8 minutes 28 seconds 464 msec
