
                                 *****************
                                 * O   R   C   A *
                                 *****************

                                            #,                                       
                                            ###                                      
                                            ####                                     
                                            #####                                    
                                            ######                                   
                                           ########,                                 
                                     ,,################,,,,,                         
                               ,,#################################,,                 
                          ,,##########################################,,             
                       ,#########################################, ''#####,          
                    ,#############################################,,   '####,        
                  ,##################################################,,,,####,       
                ,###########''''           ''''###############################       
              ,#####''   ,,,,##########,,,,          '''####'''          '####       
            ,##' ,,,,###########################,,,                        '##       
           ' ,,###''''                  '''############,,,                           
         ,,##''                                '''############,,,,        ,,,,,,###''
      ,#''                                            '''#######################'''  
     '                                                          ''''####''''         
             ,#######,   #######,   ,#######,      ##                                
            ,#'     '#,  ##    ##  ,#'     '#,    #''#        ,####,   ,####,        
            ##       ##  ##   ,#'  ##            #'  '#       #'       #'  '#        
            ##       ##  #######   ##           ,######,      #####,   #    #        
            '#,     ,#'  ##    ##  '#,     ,#' ,#      #,     #,   #   #,  ,#        
             '#######'   ##     ##  '#######'  #'      '#     '####' # '####'        



                #########################################################
                #                        -***-                          #
                #          Department of theory and spectroscopy        #
                #                                                       #
                #                      Frank Neese                      #
                #                                                       #
                #     Directorship, Architecture, Infrastructure        #
                #                    SHARK, DRIVERS                     #
                #        Core code/Algorithms in most modules           #
                #                                                       #
                #        Max Planck Institute fuer Kohlenforschung      #
                #                Kaiser Wilhelm Platz 1                 #
                #                 D-45470 Muelheim/Ruhr                 #
                #                      Germany                          #
                #                                                       #
                #                  All rights reserved                  #
                #                        -***-                          #
                #########################################################


                         Program Version 6.0.1  -  RELEASE   -


 With contributions from (in alphabetic order):
[Max-Planck-Institut fuer Kohlenforschung]                               
  Daniel Aravena         : Magnetic Suceptibility                        
  Michael Atanasov       : Ab Initio Ligand Field Theory (pilot matlab implementation)
  Alexander A. Auer      : GIAO ZORA, VPT2 properties, NMR spectrum      
  Ute Becker             : All parallelization in ORCA, NUMFREQ, NUMCALC 
  Giovanni Bistoni       : ED, misc. LED, open-shell LED, HFLD           
  Martin Brehm           : Molecular dynamics                            
  Dmytro Bykov           : pre 5.0 version of the SCF Hessian            
  Marcos Casanova-Páez   : Triplet and SCS-CIS(D). UHF-(DLPNO)-IP/EA/STEOM-CCSD. UHF-CVS-IP/STEOM-CCSD   
  Vijay G. Chilkuri      : MRCI spin determinant printing, contributions to CSF-ICE 
  Pauline Colinet        : FMM embedding                                 
  Dipayan Datta          : RHF DLPNO-CCSD density                        
  Achintya Kumar Dutta   : EOM-CC, STEOM-CC                              
  Nicolas Foglia         : Exact transition moments, OPA infrastructure, MCD improvements    
  Dmitry Ganyushin       : Spin-Orbit,Spin-Spin,Magnetic field MRCI      
  Miquel Garcia-Rates    : C-PCM and meta-GGA Hessian, CCSD/C-PCM, Gaussian charge scheme 
  Tiago L. C. Gouveia    : GS-ROHF, GS-ROCIS                             
  Yang Guo               : DLPNO-NEVPT2, F12-NEVPT2, CIM, IAO-localization        
  Andreas Hansen         : Spin unrestricted coupled pair/coupled cluster methods 
  Ingolf Harden          : AUTO-CI MPn and infrastructure                
  Benjamin Helmich-Paris : MC-RPA, TRAH-(SCF,CASSCF), AVAS, COSX integrals, SCF dyn. polar. 
  Lee Huntington         : MR-EOM, pCC                                   
  Robert Izsak           : Overlap fitted RIJCOSX, COSX-SCS-MP3, EOM     
  Riya Kayal             : Wick's Theorem for AUTO-CI, AUTO-CI UHF-CCSDT 
  Emily Kempfer          : AUTO-CI, RHF CISDT and CCSDT                  
  Christian Kollmar      : KDIIS, OOCD, Brueckner-CCSD(T), CCSD density, CASPT2, CASPT2-K, improved NEVPT2 
  Axel Koslowski         : Symmetry handling                             
  Simone Kossmann        : meta-GGA functionals, TD-DFT gradient, OOMP2, (MP2 Hessian; deprecated post 5.0) 
  Lucas Lang             : DCDCAS                                        
  Marvin Lechner         : AUTO-CI (C++ implementation), FIC-MRCC        
  Spencer Leger          : CASSCF response                               
  Dagmar Lenk            : GEPOL surface, SMD, ORCA-2-JSON               
  Dimitrios Liakos       : Extrapolation schemes; Compound Job, initial MDCI parallelization 
  Dimitrios Manganas     : Further ROCIS development; embedding schemes. LFT, Crystal Embedding 
  Dimitrios Pantazis     : SARC Basis sets                               
  Anastasios Papadopoulos: AUTO-CI, single reference methods and gradients 
  Taras Petrenko         : pre 6.0 DFT Hessian and TD-DFT gradient, (ASA, deprecated), ECA, 1-Electron XAS/XES, NRVS 
  Peter Pinski           : DLPNO-MP2, DLPNO-MP2 Gradient                 
  Christoph Reimann      : Effective Core Potentials                     
  Marius Retegan         : Local ZFS, SOC                                
  Christoph Riplinger    : Optimizer, TS searches, QM/MM, DLPNO-CCSD(T), (RO)-DLPNO pert. Triples 
  Michael Roemelt        : Original ROCIS implementation                 
  Masaaki Saitow         : Open-shell DLPNO-CCSD energy and density      
  Barbara Sandhoefer     : DKH picture change effects                    
  Kantharuban Sivalingam : CASSCF convergence/infrastructure, NEVPT2 and variants, FIC-MRCI 
  Bernardo de Souza      : ESD, SOC TD-DFT                               
  Georgi L. Stoychev     : AutoAux, RI-MP2 NMR, DLPNO-MP2 response, X2C  
  Van Anh Tran           : RI-MP2 g-tensors                              
  Willem Van den Heuvel  : Paramagnetic NMR                              
  Zikuan Wang            : NOTCH, Electric field optimization            
  Frank Wennmohs         : Technical directorship and infrastructure     
  Hang Xu                : AUTO-CI-Response properties                   
                                                                         
[FACCTs GmbH]                                                            
  Markus Bursch, Miquel Garcia-Rates, Christoph Riplinger, Bernardo de Souza, Georgi L. Stoychev 
                                                                 
  APM, Basis sets (HGBS, AHGBS, def-TZVP (Ac-Lr), def2-XVPD (La-Lu)), CI-OPT, improved COSX, DLPNO-Multilevel,           
  DOCKER, DRACO, updates on ESD, GOAT, IRC, LR-CPCM, MBIS, meta-GGA TD-DFT gradient, ML-optimized integration grids, 
  MM, NACMEs, nearIR, NEB, NEB-TS, NL-DFT gradient (VV10), 2- and 3-layer-ONIOM, interface openCOSMO-RS, QMMM,   
  Crystal-QMMM, SF, symmetry and pop. for TD-DFT, r2SCAN hybrids, SOLVATOR                                   
                                                                         
[Other institutions]                                                     
  V. Asgeirsson          : NEB                                           
  Christoph Bannwarth    : sTDA-DFT, sTD-DFT, PBEh-3c, B97-3c, D3        
  Sebastian Ehlert       : rSCAN, r2SCAN, r2SCAN-3c, D4, dhf basis sets  
  Marvin Friede          : D4 for Fr, Ra, Ac-Lr                          
  Lars Goerigk           : TD-DFT with DH, B97 family of functionals     
  Stefan Grimme          : VdW corrections, initial TS optimization, DFT functionals, gCP, sTDA/sTD-DF 
  Waldemar Hujo          : DFT-NL                                        
  H. Jonsson             : NEB                                           
  Holger Kruse           : gCP                                           
  Marcel Mueller         : wB97X-3c, vDZP basis set                      
  Hagen Neugebauer       : wr2SCAN                                       
  Tobias Risthaus        : range-separated hybrid DFT                    
  Lukas Wittmann         : regularized MP2, r2SCAN double-hybrids, wr2SCAN        
                                                                         
We gratefully acknowledge several colleagues who have allowed us to      
interface, adapt or use parts of their codes:                            
  Ed Valeev, F. Pavosevic, A. Kumar             : LibInt (2-el integral package), F12 methods 
  Garnet Chan, S. Sharma, J. Yang, R. Olivares  : DMRG                   
  Ulf Ekstrom                                   : XCFun DFT Library      
  Mihaly Kallay                                 : mrcc  (arbitrary order and MRCC methods)
  Frank Weinhold                                : gennbo (NPA and NBO analysis)           
  Simon Mueller                                 : openCOSMO-RS                            
  Christopher J. Cramer and Donald G. Truhlar   : smd solvation model                     
  S Lehtola, MJT Oliveira, MAL Marques          : LibXC Library                           
  Liviu Ungur et al                             : ANISO software                          


 Your calculation uses the libint2 library for the computation of 2-el integrals
 For citations please refer to: http://libint.valeyev.net

 Your ORCA version has been built with support for libXC version: 6.2.2
 For citations please refer to: https://libxc.gitlab.io

 This ORCA versions uses:
   CBLAS   interface :  Fast vector & matrix operations
   LAPACKE interface :  Fast linear algebra routines
   SCALAPACK package :  Parallel linear algebra routines
   Shared memory     :  Shared parallel matrices
   BLAS/LAPACK       :  OpenBLAS 0.3.27  USE64BITINT DYNAMIC_ARCH NO_AFFINITY Haswell SINGLE_THREADED
        Core in use  :  Haswell
   Copyright (c) 2011-2014, The OpenBLAS Project


NOTE: MaxCore=2000 MB was set to SCF,MP2,MDCI,CIPSI,MRCI and CIS
      => If you want to overwrite this, your respective input block should be placed after the MaxCore statement
Your calculation utilizes the atom-pairwise dispersion correction
based on EEQ partial charges (D4)


================================================================================

----- Orbital basis set information -----
Your calculation utilizes the basis: def2-QZVPPD
   F. Weigend and R. Ahlrichs, Phys. Chem. Chem. Phys. 7, 3297 (2005).
   D. Rappoport and F. Furche, J. Chem. Phys. 133, 134105 (2010)
   D. Rappoport, J. Chem. Phys. 155, 124102 (2021).

----- AuxJ basis set information -----
Your calculation utilizes the auxiliary basis: def2/J
   F. Weigend, Phys. Chem. Chem. Phys. 8, 1057 (2006).

----- AuxC basis set information -----
Your calculation utilizes the auxiliary basis: def2-QZVPPD/C
   A. Hellweg, C. Hattig, S. Hofener and W. Klopper, Theor. Chem. Acc. 117, 587 (2007).
  A. Hellweg and D. Rappoport; Phys. Chem. Chem. Phys. 17, 1010 (2015).

================================================================================
                                        WARNINGS
                       Please study these warnings very carefully!
================================================================================


WARNING: No MP2 level density has been requested!
         To calculate MP2 level properties use
         %mp2 Density relaxed end
         or
         %mp2 Density unrelaxed end
         Otherwise for double-hybrid DFT only the energy is correct!

WARNING: The frozen-core approximation is turned on by default for 
         the MP2 part of double-hybrid DFT.

================================================================================
                                       INPUT FILE
================================================================================
NAME = rh-pg_cplx.inp
|  1> # ------------------------------------
|  2> # RH_POPG (complex); ion pair-pi
|  3> # ------------------------------------
|  4> ! SP revDSD-PBEP86-D4/2021 def2-QZVPPD RIJCOSX def2/J TightSCF CPCM
|  5> %basis
|  6>   basis   "def2-QZVPPD"
|  7>   aux     "def2/J"           # RI-J (for SCF/RIJCOSX)
|  8>   auxC    "def2-QZVPPD/C"    # required for RI-MP2 (AuxC)
|  9> end
| 10> %pal
| 11>     nprocs 10
| 12> end
| 13> %MaxCore 2000
| 14> %cpcm 
| 15>    epsilon 3.0 
| 16> end
| 17> *xyz 0 1
| 18> # POPG1
| 19> C     -1.25600      3.08800       2.88600
| 20> C      0.26300      3.32700       7.70100
| 21> O     -1.11600      3.51300       4.22100
| 22> O     -0.79200      1.18700       5.29400
| 23> O      1.24900      2.72400       4.90800
| 24> O     -0.58000      3.41300       6.57700
| 25> P     -0.22900      2.59700       5.21900
| 26> H     -1.87500      3.80000       2.34100
| 27> H     -0.27300      3.02900       2.41900
| 28> H     -1.72800      2.10600       2.86500
| 29> H     -0.14000      3.94100       8.50600
| 30> H      0.32300      2.28900       8.03100
| 31> H      1.25900      3.68100       7.43600
| 32> # Arg2
| 33> C      4.30800     -0.36900       1.52000
| 34> N      3.95800     -0.33000       2.92400
| 35> H      3.88300     -1.24600       3.36900
| 36> C      3.18000      0.58800       3.51900
| 37> N      3.05800      1.83100       3.06000
| 38> H      3.67100      2.19200       2.34500
| 39> H      2.40100      2.44200       3.56600
| 40> N      2.54400      0.25200       4.64100
| 41> H      2.36800     -0.73700       4.81100
| 42> H      1.95600      0.97500       5.06800
| 43> H      4.36600      0.64800       1.13100
| 44> H      3.54800     -0.92500       0.97200
| 45> H      5.27400     -0.85900       1.40000
| 46> # His3
| 47> C     -1.43400     -1.19700       2.67600
| 48> N      0.27800      0.24600       1.47600
| 49> N     -0.90600      1.03900      -0.20400
| 50> H     -1.14800      1.57700      -1.02800
| 51> C     -0.98500     -0.29300       1.53300
| 52> C      0.28900      1.03900       0.42800
| 53> H      1.13400      1.63700       0.08700
| 54> C     -1.73500      0.18800       0.48500
| 55> H     -2.76500      0.00700       0.18700
| 56> H     -2.46600     -1.50400       2.51300
| 57> H     -0.79400     -2.07800       2.71400
| 58> H     -1.36100     -0.65400       3.61900
| 59> *
| 60> 
| 61> 
| 62> 
| 63>                          ****END OF INPUT****
================================================================================

                       ****************************
                       * Single Point Calculation *
                       ****************************

---------------------------------
CARTESIAN COORDINATES (ANGSTROEM)
---------------------------------
  C     -1.256000    3.088000    2.886000
  C      0.263000    3.327000    7.701000
  O     -1.116000    3.513000    4.221000
  O     -0.792000    1.187000    5.294000
  O      1.249000    2.724000    4.908000
  O     -0.580000    3.413000    6.577000
  P     -0.229000    2.597000    5.219000
  H     -1.875000    3.800000    2.341000
  H     -0.273000    3.029000    2.419000
  H     -1.728000    2.106000    2.865000
  H     -0.140000    3.941000    8.506000
  H      0.323000    2.289000    8.031000
  H      1.259000    3.681000    7.436000
  C      4.308000   -0.369000    1.520000
  N      3.958000   -0.330000    2.924000
  H      3.883000   -1.246000    3.369000
  C      3.180000    0.588000    3.519000
  N      3.058000    1.831000    3.060000
  H      3.671000    2.192000    2.345000
  H      2.401000    2.442000    3.566000
  N      2.544000    0.252000    4.641000
  H      2.368000   -0.737000    4.811000
  H      1.956000    0.975000    5.068000
  H      4.366000    0.648000    1.131000
  H      3.548000   -0.925000    0.972000
  H      5.274000   -0.859000    1.400000
  C     -1.434000   -1.197000    2.676000
  N      0.278000    0.246000    1.476000
  N     -0.906000    1.039000   -0.204000
  H     -1.148000    1.577000   -1.028000
  C     -0.985000   -0.293000    1.533000
  C      0.289000    1.039000    0.428000
  H      1.134000    1.637000    0.087000
  C     -1.735000    0.188000    0.485000
  H     -2.765000    0.007000    0.187000
  H     -2.466000   -1.504000    2.513000
  H     -0.794000   -2.078000    2.714000
  H     -1.361000   -0.654000    3.619000

----------------------------
CARTESIAN COORDINATES (A.U.)
----------------------------
  NO LB      ZA    FRAG     MASS         X           Y           Z
   0 C     6.0000    0    12.011   -2.373496    5.835474    5.453750
   1 C     6.0000    0    12.011    0.496998    6.287119   14.552781
   2 O     8.0000    0    15.999   -2.108934    6.638608    7.976534
   3 O     8.0000    0    15.999   -1.496663    2.243105   10.004210
   4 O     8.0000    0    15.999    2.360268    5.147614    9.274776
   5 O     8.0000    0    15.999   -1.096041    6.449635   12.428729
   6 P    15.0000    0    30.974   -0.432747    4.907619    9.862481
   7 H     1.0000    0     1.008   -3.543237    7.180959    4.423849
   8 H     1.0000    0     1.008   -0.515895    5.723980    4.571248
   9 H     1.0000    0     1.008   -3.265447    3.979763    5.414065
  10 H     1.0000    0     1.008   -0.264562    7.447411   16.074010
  11 H     1.0000    0     1.008    0.610382    4.325583   15.176391
  12 H     1.0000    0     1.008    2.379165    6.956082   14.052004
  13 C     6.0000    0    12.011    8.140940   -0.697309    2.872384
  14 N     7.0000    0    14.007    7.479536   -0.623610    5.525559
  15 H     1.0000    0     1.008    7.337807   -2.354599    6.366487
  16 C     6.0000    0    12.011    6.009329    1.111159    6.649946
  17 N     7.0000    0    14.007    5.778783    3.460089    5.782562
  18 H     1.0000    0     1.008    6.937185    4.142280    4.431408
  19 H     1.0000    0     1.008    4.537232    4.614711    6.738763
  20 N     7.0000    0    14.007    4.807463    0.476211    8.770219
  21 H     1.0000    0     1.008    4.474871   -1.392728    9.091472
  22 H     1.0000    0     1.008    3.696304    1.842483    9.577132
  23 H     1.0000    0     1.008    8.250544    1.224543    2.137280
  24 H     1.0000    0     1.008    6.704748   -1.747997    1.836814
  25 H     1.0000    0     1.008    9.966416   -1.623275    2.645617
  26 C     6.0000    0    12.011   -2.709867   -2.262002    5.056907
  27 N     7.0000    0    14.007    0.525344    0.464873    2.789236
  28 N     7.0000    0    14.007   -1.712092    1.963425   -0.385504
  29 H     1.0000    0     1.008   -2.169406    2.980098   -1.942638
  30 C     6.0000    0    12.011   -1.861380   -0.553690    2.896950
  31 C     6.0000    0    12.011    0.546131    1.963425    0.808803
  32 H     1.0000    0     1.008    2.142949    3.093482    0.164406
  33 C     6.0000    0    12.011   -3.278675    0.355269    0.916517
  34 H     1.0000    0     1.008   -5.225093    0.013228    0.353379
  35 H     1.0000    0     1.008   -4.660065   -2.842148    4.748882
  36 H     1.0000    0     1.008   -1.500443   -3.926851    5.128717
  37 H     1.0000    0     1.008   -2.571917   -1.235881    6.838919

--------------------------------
INTERNAL COORDINATES (ANGSTROEM)
--------------------------------
 C      0   0   0     0.000000000000     0.00000000     0.00000000
 C      1   0   0     5.054572880076     0.00000000     0.00000000
 O      1   2   0     1.407995028400    18.67132463     0.00000000
 O      3   1   2     2.581972308140    97.73452977   326.16132629
 O      4   3   1     2.583998065015    60.07880033   102.34230838
 O      2   1   3     1.407629567749    20.32378076    35.80594638
 P      5   4   3     1.515695879786    31.71129267    32.09493168
 H      1   2   6     1.089554955016   128.04854352    42.51192240
 H      1   2   6     1.089889443935    98.02977362   165.06198648
 H      1   2   6     1.089747218395   101.01870999   276.82146315
 H      2   1   3     1.089692617209   128.25976835    10.57131939
 H      2   1   3     1.090845543604   105.05317628   141.20986129
 H      2   1   3     1.089750888965    93.34667227   252.34248415
 C      5   4   3     5.513861985941   101.32232118   240.57338228
 N     14   5   4     1.447493350589    41.81962639   285.39236399
 H     15  14   5     1.021129766484   114.60043876   146.39028081
 C     15  14   5     1.342398227055   126.04918748   358.49694821
 N     17  15  14     1.330644204887   122.61916505   332.57694134
 H     18  17  15     1.008620344828   121.54351664   348.60949676
 H     18  17  15     1.030051455025   116.30398443   177.21337834
 N     17  15  14     1.332770047683   118.50952509   155.06972019
 H     21  17  15     1.018821377868   117.88087206   336.62034162
 H     21  17  15     1.025086337827   116.52514856   180.18856895
 H     14   5   4     1.090400843727    74.06931422   138.29786348
 H     14   5   4     1.089513652966   102.02415815    31.20354340
 H     14   5   4     1.089796311244   144.25631533   239.60672548
 C     10   1   2     3.321440350210   149.19120764   280.25844899
 N     27  10   1     2.540313563322    61.42212975   328.57987110
 N     28  27  10     2.202976395697   101.68371537   287.96714259
 H     29  28  27     1.013402190643   159.97129425   175.72911101
 C     28  27  10     1.374386772346    30.49469994   283.74585159
 C     28  27  10     1.314257965546   136.47448387   290.02353530
 H     32  28  27     1.089912840552   125.94650997   176.22051101
 C     29  28  27     1.373376496085    73.66713830   357.43425975
 H     34  29  28     1.087412065410   122.50735605   179.70088295
 H     27  10   1     1.088963727587   101.82868571   191.43853723
 H     27  10   1     1.089589372195   148.65825336    12.56898962
 H     27  10   1     1.090608545721    57.42524080    85.76248671

---------------------------
INTERNAL COORDINATES (A.U.)
---------------------------
 C      0   0   0     0.000000000000     0.00000000     0.00000000
 C      1   0   0     9.551758467289     0.00000000     0.00000000
 O      1   2   0     2.660725001599    18.67132463     0.00000000
 O      3   1   2     4.879220547752    97.73452977   326.16132629
 O      4   3   1     4.883048673460    60.07880033   102.34230838
 O      2   1   3     2.660034381055    20.32378076    35.80594638
 P      5   4   3     2.864250115108    31.71129267    32.09493168
 H      1   2   6     2.058960472837   128.04854352    42.51192240
 H      1   2   6     2.059592565288    98.02977362   165.06198648
 H      1   2   6     2.059323797969   101.01870999   276.82146315
 H      2   1   3     2.059220616681   128.25976835    10.57131939
 H      2   1   3     2.061399331819   105.05317628   141.20986129
 H      2   1   3     2.059330734341    93.34667227   252.34248415
 C      5   4   3    10.419689093667   101.32232118   240.57338228
 N     14   5   4     2.735366013286    41.81962639   285.39236399
 H     15  14   5     1.929655605850   114.60043876   146.39028081
 C     15  14   5     2.536765011795   126.04918748   358.49694821
 N     17  15  14     2.514553128926   122.61916505   332.57694134
 H     18  17  15     1.906016224825   121.54351664   348.60949676
 H     18  17  15     1.946515153845   116.30398443   177.21337834
 N     17  15  14     2.518570389613   118.50952509   155.06972019
 H     21  17  15     1.925293383554   117.88087206   336.62034162
 H     21  17  15     1.937132442118   116.52514856   180.18856895
 H     14   5   4     2.060558970840    74.06931422   138.29786348
 H     14   5   4     2.058882423274   102.02415815    31.20354340
 H     14   5   4     2.059416570008   144.25631533   239.60672548
 C     10   1   2     6.276612632052   149.19120764   280.25844899
 N     27  10   1     4.800496928965    61.42212975   328.57987110
 N     28  27  10     4.163022067361   101.68371537   287.96714259
 H     29  28  27     1.915052603831   159.97129425   175.72911101
 C     28  27  10     2.597214601818    30.49469994   283.74585159
 C     28  27  10     2.483587624206   136.47448387   290.02353530
 H     32  28  27     2.059636778487   125.94650997   176.22051101
 C     29  28  27     2.595305456366    73.66713830   357.43425975
 H     34  29  28     2.054910998347   122.50735605   179.70088295
 H     27  10   1     2.057843214913   101.82868571   191.43853723
 H     27  10   1     2.059025511879   148.65825336    12.56898962
 H     27  10   1     2.060951470727    57.42524080    85.76248671

---------------------
BASIS SET INFORMATION
---------------------
There are 5 groups of distinct atoms

 Group   1 Type C   : 16s8p4d2f1g contracted to 8s4p4d2f1g pattern {82111111/5111/1111/11/1}
 Group   2 Type O   : 16s9p4d2f1g contracted to 8s5p4d2f1g pattern {82111111/51111/1111/11/1}
 Group   3 Type P   : 21s14p5d2f1g contracted to 10s6p5d2f1g pattern {10311111111/821111/11111/11/1}
 Group   4 Type H   : 7s4p2d1f contracted to 4s4p2d1f pattern {4111/1111/11/1}
 Group   5 Type N   : 16s8p4d2f1g contracted to 8s4p4d2f1g pattern {82111111/5111/1111/11/1}

Atom   0C    basis set group =>   1
Atom   1C    basis set group =>   1
Atom   2O    basis set group =>   2
Atom   3O    basis set group =>   2
Atom   4O    basis set group =>   2
Atom   5O    basis set group =>   2
Atom   6P    basis set group =>   3
Atom   7H    basis set group =>   4
Atom   8H    basis set group =>   4
Atom   9H    basis set group =>   4
Atom  10H    basis set group =>   4
Atom  11H    basis set group =>   4
Atom  12H    basis set group =>   4
Atom  13C    basis set group =>   1
Atom  14N    basis set group =>   5
Atom  15H    basis set group =>   4
Atom  16C    basis set group =>   1
Atom  17N    basis set group =>   5
Atom  18H    basis set group =>   4
Atom  19H    basis set group =>   4
Atom  20N    basis set group =>   5
Atom  21H    basis set group =>   4
Atom  22H    basis set group =>   4
Atom  23H    basis set group =>   4
Atom  24H    basis set group =>   4
Atom  25H    basis set group =>   4
Atom  26C    basis set group =>   1
Atom  27N    basis set group =>   5
Atom  28N    basis set group =>   5
Atom  29H    basis set group =>   4
Atom  30C    basis set group =>   1
Atom  31C    basis set group =>   1
Atom  32H    basis set group =>   4
Atom  33C    basis set group =>   1
Atom  34H    basis set group =>   4
Atom  35H    basis set group =>   4
Atom  36H    basis set group =>   4
Atom  37H    basis set group =>   4
---------------------------------
AUXILIARY/J BASIS SET INFORMATION
---------------------------------
There are 5 groups of distinct atoms

 Group   1 Type C   : 12s5p4d2f1g contracted to 6s4p3d1f1g pattern {711111/2111/211/2/1}
 Group   2 Type O   : 12s5p4d2f1g contracted to 6s4p3d1f1g pattern {711111/2111/211/2/1}
 Group   3 Type P   : 14s5p5d2f1g contracted to 8s4p3d1f1g pattern {71111111/2111/311/2/1}
 Group   4 Type H   : 5s2p1d contracted to 3s1p1d pattern {311/2/1}
 Group   5 Type N   : 12s5p4d2f1g contracted to 6s4p3d1f1g pattern {711111/2111/211/2/1}

Atom   0C    basis set group =>   1
Atom   1C    basis set group =>   1
Atom   2O    basis set group =>   2
Atom   3O    basis set group =>   2
Atom   4O    basis set group =>   2
Atom   5O    basis set group =>   2
Atom   6P    basis set group =>   3
Atom   7H    basis set group =>   4
Atom   8H    basis set group =>   4
Atom   9H    basis set group =>   4
Atom  10H    basis set group =>   4
Atom  11H    basis set group =>   4
Atom  12H    basis set group =>   4
Atom  13C    basis set group =>   1
Atom  14N    basis set group =>   5
Atom  15H    basis set group =>   4
Atom  16C    basis set group =>   1
Atom  17N    basis set group =>   5
Atom  18H    basis set group =>   4
Atom  19H    basis set group =>   4
Atom  20N    basis set group =>   5
Atom  21H    basis set group =>   4
Atom  22H    basis set group =>   4
Atom  23H    basis set group =>   4
Atom  24H    basis set group =>   4
Atom  25H    basis set group =>   4
Atom  26C    basis set group =>   1
Atom  27N    basis set group =>   5
Atom  28N    basis set group =>   5
Atom  29H    basis set group =>   4
Atom  30C    basis set group =>   1
Atom  31C    basis set group =>   1
Atom  32H    basis set group =>   4
Atom  33C    basis set group =>   1
Atom  34H    basis set group =>   4
Atom  35H    basis set group =>   4
Atom  36H    basis set group =>   4
Atom  37H    basis set group =>   4
---------------------------------
AUXILIARY/C BASIS SET INFORMATION
---------------------------------
There are 5 groups of distinct atoms

 Group   1 Type C   : 10s9p8d6f3g1h contracted to 10s9p8d6f3g1h pattern {1111111111/111111111/11111111/111111/111/1}
 Group   2 Type O   : 10s9p8d6f3g1h contracted to 10s9p8d6f3g1h pattern {1111111111/111111111/11111111/111111/111/1}
 Group   3 Type P   : 13s11p10d7f3g1h contracted to 13s11p10d7f3g1h pattern {1111111111111/11111111111/1111111111/1111111/111/1}
 Group   4 Type H   : 7s5p4d2f1g contracted to 7s5p4d2f1g pattern {1111111/11111/1111/11/1}
 Group   5 Type N   : 10s9p8d6f3g1h contracted to 10s9p8d6f3g1h pattern {1111111111/111111111/11111111/111111/111/1}

Atom   0C    basis set group =>   1
Atom   1C    basis set group =>   1
Atom   2O    basis set group =>   2
Atom   3O    basis set group =>   2
Atom   4O    basis set group =>   2
Atom   5O    basis set group =>   2
Atom   6P    basis set group =>   3
Atom   7H    basis set group =>   4
Atom   8H    basis set group =>   4
Atom   9H    basis set group =>   4
Atom  10H    basis set group =>   4
Atom  11H    basis set group =>   4
Atom  12H    basis set group =>   4
Atom  13C    basis set group =>   1
Atom  14N    basis set group =>   5
Atom  15H    basis set group =>   4
Atom  16C    basis set group =>   1
Atom  17N    basis set group =>   5
Atom  18H    basis set group =>   4
Atom  19H    basis set group =>   4
Atom  20N    basis set group =>   5
Atom  21H    basis set group =>   4
Atom  22H    basis set group =>   4
Atom  23H    basis set group =>   4
Atom  24H    basis set group =>   4
Atom  25H    basis set group =>   4
Atom  26C    basis set group =>   1
Atom  27N    basis set group =>   5
Atom  28N    basis set group =>   5
Atom  29H    basis set group =>   4
Atom  30C    basis set group =>   1
Atom  31C    basis set group =>   1
Atom  32H    basis set group =>   4
Atom  33C    basis set group =>   1
Atom  34H    basis set group =>   4
Atom  35H    basis set group =>   4
Atom  36H    basis set group =>   4
Atom  37H    basis set group =>   4


           ************************************************************
           *        Program running with 10 parallel MPI-processes    *
           *              working on a common directory               *
           ************************************************************
------------------------------------------------------------------------------
                             ORCA STARTUP CALCULATIONS
                           -- RI-GTO INTEGRALS CHOSEN --
------------------------------------------------------------------------------
------------------------------------------------------------------------------
                   ___                                                        
                  /   \      - P O W E R E D   B Y -                         
                 /     \                                                     
                 |  |  |   _    _      __       _____    __    __             
                 |  |  |  | |  | |    /  \     |  _  \  |  |  /  |          
                  \  \/   | |  | |   /    \    | | | |  |  | /  /          
                 / \  \   | |__| |  /  /\  \   | |_| |  |  |/  /          
                |  |  |   |  __  | /  /__\  \  |    /   |      \           
                |  |  |   | |  | | |   __   |  |    \   |  |\   \          
                \     /   | |  | | |  |  |  |  | |\  \  |  | \   \       
                 \___/    |_|  |_| |__|  |__|  |_| \__\ |__|  \__/        
                                                                              
                      - O R C A' S   B I G   F R I E N D -                    
                                      &                                       
                       - I N T E G R A L  F E E D E R -                       
                                                                              
 v1 FN, 2020, v2 2021, v3 2022-2024                                           
------------------------------------------------------------------------------


----------------------
SHARK INTEGRAL PACKAGE
----------------------

Number of atoms                             ...     38
Number of basis functions                   ...   1819
Number of shells                            ...    571
Maximum angular momentum                    ...      4
Integral batch strategy                     ... SHARK/LIBINT Hybrid
RI-J (if used) integral strategy            ... SPLIT-RIJ (Revised 2003 algorithm where possible)
Printlevel                                  ...      1
Contraction scheme used                     ... SEGMENTED contraction
Prescreening option                         ... SCHWARTZ
   Thresh                                   ... 2.500e-11
   Tcut                                     ... 2.500e-12
   Tpresel                                  ... 2.500e-12 
Coulomb Range Separation                    ... NOT USED
Exchange Range Separation                   ... NOT USED
Multipole approximations                    ... NOT USED
Finite Nucleus Model                        ... NOT USED
CABS basis                                  ... NOT available
Auxiliary Coulomb fitting basis             ... AVAILABLE
   # of basis functions in Aux-J            ...   1104
   # of shells in Aux-J                     ...    372
   Maximum angular momentum in Aux-J        ...      4
Auxiliary J/K fitting basis                 ... NOT available
Auxiliary Correlation fitting basis         ... AVAILABLE
   # of basis functions in Aux-C            ...   4152
   # of shells in Aux-C                     ...   1054
   Maximum angular momentum in Aux-C        ...      5
Auxiliary 'external' fitting basis          ... NOT available

Checking pre-screening integrals            ... done (  0.0 sec) Dimension = 571
Check shell pair data                       ... done (  0.0 sec)
Shell pair information
Shell pair cut-off parameter TPreSel        ...   2.5e-12
Total number of shell pairs                 ...    163306
Shell pairs after pre-screening             ...    111201
Total number of primitive shell pairs       ...    365945
Primitive shell pairs kept                  ...    182318
          la=0 lb=0:  17039 shell pairs
          la=1 lb=0:  26066 shell pairs
          la=1 lb=1:   9937 shell pairs
          la=2 lb=0:  17012 shell pairs
          la=2 lb=1:  13162 shell pairs
          la=2 lb=2:   4346 shell pairs
          la=3 lb=0:   7242 shell pairs
          la=3 lb=1:   5919 shell pairs
          la=3 lb=2:   3666 shell pairs
          la=3 lb=3:    758 shell pairs
          la=4 lb=0:   2359 shell pairs
          la=4 lb=1:   1923 shell pairs
          la=4 lb=2:   1205 shell pairs
          la=4 lb=3:    478 shell pairs
          la=4 lb=4:     89 shell pairs

Calculating one electron integrals          ... done (  0.2 sec)
Calculating RI/J V-Matrix + Cholesky decomp.... done (  0.0 sec)
Calculating RI/C V-Matrix + Cholesky decomp.... done (  0.6 sec)
Calculating Nuclear repulsion               ... done (  0.0 sec) ENN=   1629.712822918172 Eh

Diagonalization of the overlap matrix:
Smallest eigenvalue                        ... 9.197e-08
Time for diagonalization                   ...    0.500 sec
Threshold for overlap eigenvalues          ... 1.000e-07
Number of eigenvalues below threshold      ... 1
Smallest eigenvalue above threshold        ... 1.078e-07

IMPORTANT:
Smallest eigenvalue of S below the DiffSThresh (1.000e-06) while
Thresh>1e-12 and/or TCut>1e-13! In order to avoid SCF convergence issues,
Thresh will be set to at least 1e-12 and TCut to at least 1e-13.
This can be turned off by adding %SCF DiffSThresh -1 END to the input.

Time for construction of square roots      ...    0.329 sec
Total time needed                          ...    0.853 sec

-------------------
DFT GRID GENERATION
-------------------

General Integration Accuracy     IntAcc      ... 4.388
Radial Grid Type                 RadialGrid  ... OptM3 with GC (2021)
Angular Grid (max. ang.)         AngularGrid ... 4 (Lebedev-302)
Angular grid pruning method      GridPruning ... 4 (adaptive)
Weight generation scheme         WeightScheme... mBecke (2022)
Basis function cutoff            BFCut       ... 1.0000e-11
Integration weight cutoff        WCut        ... 1.0000e-14
Partially contracted basis set               ... off
Rotationally invariant grid construction     ... off
Angular grids for H and He will be reduced by one unit
Diffuse basis detected: some atoms will have their outermost
                        angular grid increased by 1.

Total number of grid points                  ...   181379
Total number of batches                      ...     2853
Average number of points per batch           ...       63
Average number of grid points per atom       ...     4773

--------------------
COSX GRID GENERATION
--------------------

GRIDX 1
-------
General Integration Accuracy     IntAcc      ... 3.816
Radial Grid Type                 RadialGrid  ... OptM3 with GC (2021)
Angular Grid (max. ang.)         AngularGrid ... 1 (Lebedev-50)
Angular grid pruning method      GridPruning ... 4 (adaptive)
Weight generation scheme         WeightScheme... mBecke (2022)
Basis function cutoff            BFCut       ... 1.0000e-11
Integration weight cutoff        WCut        ... 1.0000e-14
Partially contracted basis set               ... on
Rotationally invariant grid construction     ... off
Angular grids for H and He will be reduced by one unit
Diffuse basis detected: some atoms will have their outermost
                        angular grid increased by 1.

Total number of grid points                  ...    23686
Total number of batches                      ...      206
Average number of points per batch           ...      114
Average number of grid points per atom       ...      623
UseSFitting                                  ... on

GRIDX 2
-------
General Integration Accuracy     IntAcc      ... 4.020
Radial Grid Type                 RadialGrid  ... OptM3 with GC (2021)
Angular Grid (max. ang.)         AngularGrid ... 2 (Lebedev-110)
Angular grid pruning method      GridPruning ... 4 (adaptive)
Weight generation scheme         WeightScheme... mBecke (2022)
Basis function cutoff            BFCut       ... 1.0000e-11
Integration weight cutoff        WCut        ... 1.0000e-14
Partially contracted basis set               ... on
Rotationally invariant grid construction     ... off
Angular grids for H and He will be reduced by one unit
Diffuse basis detected: some atoms will have their outermost
                        angular grid increased by 1.

Total number of grid points                  ...    52861
Total number of batches                      ...      435
Average number of points per batch           ...      121
Average number of grid points per atom       ...     1391
UseSFitting                                  ... on

GRIDX 3
-------
General Integration Accuracy     IntAcc      ... 4.338
Radial Grid Type                 RadialGrid  ... OptM3 with GC (2021)
Angular Grid (max. ang.)         AngularGrid ... 3 (Lebedev-194)
Angular grid pruning method      GridPruning ... 4 (adaptive)
Weight generation scheme         WeightScheme... mBecke (2022)
Basis function cutoff            BFCut       ... 1.0000e-11
Integration weight cutoff        WCut        ... 1.0000e-14
Partially contracted basis set               ... on
Rotationally invariant grid construction     ... off
Angular grids for H and He will be reduced by one unit
Diffuse basis detected: some atoms will have their outermost
                        angular grid increased by 1.

Total number of grid points                  ...   117660
Total number of batches                      ...      937
Average number of points per batch           ...      125
Average number of grid points per atom       ...     3096
UseSFitting                                  ... on
Initializing property integral containers    ... done (  0.0 sec)

SHARK setup successfully completed in  10.1 seconds

Maximum memory used throughout the entire STARTUP-calculation: 264.1 MB


           ************************************************************
           *        Program running with 10 parallel MPI-processes    *
           *              working on a common directory               *
           ************************************************************
-------------------------------------------------------------------------------
                                 ORCA GUESS
                   Start orbitals & Density for SCF / CASSCF
-------------------------------------------------------------------------------

------------
SCF SETTINGS
------------
Hamiltonian:
 Density Functional     Method          .... DFT(GTOs)
 Exchange Functional    Exchange        .... PBE
   PBE kappa parameter   XKappa         ....  0.804000
   PBE mue parameter    XMuePBE         ....  0.219520
 Correlation Functional Correlation     .... P86
 LDA part of GGA corr.  LDAOpt          .... VWN-5
 Gradients option       PostSCFGGA      .... off
 Hybrid DFT is turned on
   Fraction HF Exchange ScalHFX         ....  0.690000
   Scaling of DF-GGA-X  ScalDFX         ....  0.310000
   Scaling of DF-GGA-C  ScalDFC         ....  0.422400
   Scaling of DF-LDA-C  ScalLDAC        ....  0.422400
   Perturbative correction              ....  1.000000
 RI-approximation to the Coulomb term is turned on
   Number of AuxJ basis functions       .... 1104
   RIJ-COSX (HFX calculated with COS-X)).... on


General Settings:
 Integral files         IntName         .... rh-pg_cplx
 Hartree-Fock type      HFTyp           .... RHF
 Total Charge           Charge          ....    0
 Multiplicity           Mult            ....    1
 Number of Electrons    NEL             ....  150
 Basis Dimension        Dim             .... 1819
 Nuclear Repulsion      ENuc            ....   1629.7128229182 Eh

Convergence Acceleration:
 AO-DIIS                CNVDIIS         .... on
   Start iteration      DIISMaxIt       ....    12
   Startup error        DIISStart       ....  0.200000
   # of expansion vecs  DIISMaxEq       ....     5
   Bias factor          DIISBfac        ....   1.050
   Max. coefficient     DIISMaxC        ....  10.000
 MO-DIIS                CNVKDIIS        .... off
 Trust-Rad. Augm. Hess. CNVTRAH         .... auto
   Auto Start mean grad. ratio tolernc. ....  1.125000
   Auto Start start iteration           ....    50
   Auto Start num. interpolation iter.  ....    10
   Max. Number of Micro iterations      ....    24
   Max. Number of Macro iterations      .... Maxiter - #DIIS iter
   Number of Davidson start vectors     ....     2
   Converg. threshold    (grad. norm)   ....   1.000e-05
   Grad. Scal. Fac. for Micro threshold ....   0.100
   Minimum threshold for Micro iter.    ....   1.000e-02
   NR start threshold (gradient norm)   ....   1.000e-04
   Initial trust radius                 ....   0.400
   Minimum AH scaling param. (alpha)    ....   1.000
   Maximum AH scaling param. (alpha)    .... 1000.000
   Quad. conv. algorithm                .... NR
   White noise on init. David. guess    .... on
   Maximum white noise                  ....   0.010
   Pseudo random numbers                .... off
   Inactive MOs                         .... canonical
   Orbital update algorithm             .... Taylor
   Preconditioner                       .... Diag
   Full preconditioner red. dimension   ....   250
 SOSCF                  CNVSOSCF        .... on
   Start iteration      SOSCFMaxIt      ....   150
   Startup grad/error   SOSCFStart      ....  0.003300
   Hessian update       SOSCFHessUp     .... L-BFGS
 Level Shifting         CNVShift        .... on
   Level shift para.    LevelShift      ....    0.2500
   Turn off err/grad.   ShiftErr        ....    0.0010
 Zerner damping         CNVZerner       .... off
 Static damping         CNVDamp         .... on
   Fraction old density DampFac         ....    0.7000
   Max. Damping (<1)    DampMax         ....    0.9800
   Min. Damping (>=0)   DampMin         ....    0.0000
   Turn off err/grad.   DampErr         ....    0.1000

SCF Procedure:
 Maximum # iterations   MaxIter         ....   125
 SCF integral mode      SCFMode         .... Direct
   Integral package                     .... SHARK and LIBINT hybrid scheme
 Reset frequency        DirectResetFreq ....    20
 Integral Threshold     Thresh          ....  1.000e-12 Eh
 Primitive CutOff       TCut            ....  1.000e-13 Eh

Convergence Tolerance:
 Convergence Check Mode ConvCheckMode   .... Total+1el-Energy
 Convergence forced     ConvForced      .... 0
 Energy Change          TolE            ....  1.000e-08 Eh
 1-El. energy change                    ....  1.000e-05 Eh
 Orbital Gradient       TolG            ....  1.000e-05
 Orbital Rotation angle TolX            ....  1.000e-05
 DIIS Error             TolErr          ....  5.000e-07

------------------------------
INITIAL GUESS: MODEL POTENTIAL
------------------------------
Loading Hartree-Fock densities                     ... done
Calculating cut-offs                               ... done
Initializing the effective Hamiltonian             ... done
Setting up the integral package (SHARK)            ... done
Starting the Coulomb interaction                   ... done (   1.7 sec)
Making the grid                                    ... done (   0.3 sec)
Mapping shells                                     ... done
Starting the XC term evaluation                    ... done (   1.4 sec)
  promolecular density results
     # of electrons  =    149.989715650
     EX              =   -134.806172445
     EC              =      0.051759239
     EX+EC           =   -134.754413206
Transforming the Hamiltonian                       ... done (   0.3 sec)
Diagonalizing the Hamiltonian                      ... done (   0.5 sec)
Back transforming the eigenvectors                 ... done (   0.1 sec)
Now organizing SCF variables                       ... done
                      ------------------
                      INITIAL GUESS DONE (   4.5 sec)
                      ------------------
             **** ENERGY FILE WAS UPDATED (rh-pg_cplx.en.tmp) ****
Finished Guess after   6.2 sec
Maximum memory used throughout the entire GUESS-calculation: 256.6 MB


           ************************************************************
           *        Program running with 10 parallel MPI-processes    *
           *              working on a common directory               *
           ************************************************************

-------------------------------------------------------------------------------------------
                                      ORCA LEAN-SCF
                              memory conserving SCF solver
-------------------------------------------------------------------------------------------

--------------------
CPCM SOLVATION MODEL
--------------------
CPCM parameters:
  Epsilon                                         ...       3.0000
  Refrac                                          ...       1.3300
  Rsolv                                           ...       1.3000
  Surface type                                    ... GAUSSIAN VDW
  Discretization scheme                           ... Constant charge density
    Threshold for H atoms                         ...       5.0000 (charges/Ang^2)
    Threshold for non-H atoms                     ...       5.0000 (charges/Ang^2)
  Epsilon function type                           ...         CPCM
Solvent:                                          ... CUSTOM
Radii:
  Scheme                                          ... Element-dependent radii
  Radius for C  used is    3.8550 Bohr (=   2.0400 Ang.)
  Radius for O  used is    3.4469 Bohr (=   1.8240 Ang.)
  Radius for P  used is    4.0818 Bohr (=   2.1600 Ang.)
  Radius for H  used is    2.4944 Bohr (=   1.3200 Ang.)
  Radius for N  used is    3.5149 Bohr (=   1.8600 Ang.)
Calculating surface                               ...        done! (  0.0s)
Cavity surface points                             ...         3362
Cavity Volume                                     ...    2251.6812
Cavity Surface-area                               ...    1253.4622
Calculating surface distance matrix               ...        done! (  0.1s)
Performing Cholesky decomposition & store         ...        done! (  0.3s)
Overall time for CPCM initialization              ...                 0.3s

----------------------------------------D-I-I-S--------------------------------------------
Iteration    Energy (Eh)           Delta-E    RMSDP     MaxDP     DIISErr   Damp  Time(sec)
-------------------------------------------------------------------------------------------
               ***  Starting incremental Fock matrix formation  ***
    1    -1229.1823831146139128     0.00e+00  8.16e-03  4.18e+00  3.81e-01  0.700  50.5
    2    -1229.4469368322029368    -2.65e-01  7.20e-03  3.51e+00  1.94e-01  0.700  29.3
                               ***Turning on AO-DIIS***
    3    -1229.5811421185412655    -1.34e-01  4.57e-03  1.90e+00  8.42e-02  0.700  27.8
    4    -1229.6622311838782480    -8.11e-02  1.18e-02  4.42e+00  5.93e-02  0.000  27.4
    5    -1229.8396370741170358    -1.77e-01  1.07e-03  4.46e-01  8.43e-03  0.000  28.2
    6    -1229.8400150196175673    -3.78e-04  2.56e-04  7.96e-02  4.25e-03  0.000  26.1
                              *** Initializing SOSCF ***
---------------------------------------S-O-S-C-F--------------------------------------
Iteration    Energy (Eh)           Delta-E    RMSDP     MaxDP     MaxGrad    Time(sec)
--------------------------------------------------------------------------------------
    7    -1229.8400913013001627    -7.63e-05  1.56e-04  4.82e-02  1.28e-03    26.2
               *** Restarting incremental Fock matrix formation ***
    8    -1229.8400695540035485     2.17e-05  1.53e-02  7.82e+00  1.92e-04    50.3
    9    -1229.8400787006285100    -9.15e-06  1.88e-03  1.06e+00  5.63e-05    44.7
   10    -1229.8400785186477151     1.82e-07  1.07e-03  6.09e-01  3.85e-05    40.9
   11    -1229.8400792924671805    -7.74e-07  3.22e-04  1.83e-01  7.53e-06    39.6
   12    -1229.8400794249355386    -1.32e-07  7.01e-05  3.73e-02  2.74e-06    37.0
   13    -1229.8400794492131354    -2.43e-08  7.73e-05  4.84e-02  1.53e-06    33.3
                  *** Gradient check signals convergence ***

               *****************************************************
               *                     SUCCESS                       *
               *           SCF CONVERGED AFTER  13 CYCLES          *
               *****************************************************

Recomputing exchange energy using gridx3       ... done (   84.443 sec)
Old exchange energy                            :    -94.950514302 Eh
New exchange energy                            :    -94.950507493 Eh
Exchange energy change after final integration :      0.000006809 Eh
Total energy after final integration           :  -1229.840072640 Eh
             **** ENERGY FILE WAS UPDATED (rh-pg_cplx.en.tmp) ****

----------------
TOTAL SCF ENERGY
----------------

Total Energy       :      -1229.84007264049910 Eh          -33465.64974 eV

Components:
Nuclear Repulsion  :       1629.71282291817215 Eh           44346.74046 eV
Electronic Energy  :      -2859.50767877884891 Eh          -77811.15978 eV
One Electron Energy:      -4931.43209242132798 Eh         -134191.08938 eV
Two Electron Energy:       2071.92441364247907 Eh           56379.92960 eV
CPCM Dielectric    :         -0.04522358853638 Eh              -1.23060 eV

Virial components:
Potential Energy   :      -2456.68008844481528 Eh          -66849.66378 eV
Kinetic Energy     :       1226.84001580431618 Eh           33384.01404 eV
Virial Ratio       :          2.00244535293725

DFT components:
N(Alpha)           :       75.000198150524 electrons
N(Beta)            :       75.000198150524 electrons
N(Total)           :      150.000396301047 electrons
E(X)               :      -42.501858188093 Eh       
E(C)               :       -2.394437017408 Eh       
E(XC)              :      -44.896295205501 Eh       

CPCM Solvation Model Properties:
Surface-charge          :         -0.03122643087397
Corrected charge        :         -0.00000000000000
Outlying charge corr.   :          0.00003613789752 Eh               0.00098 eV
Free-energy (cav+disp)  :  This term is not implemented in the current solvation scheme

---------------
SCF CONVERGENCE
---------------

  Last Energy change         ...    2.4278e-08  Tolerance :   1.0000e-08
  Last MAX-Density change    ...    4.8365e-02  Tolerance :   1.0000e-07
  Last RMS-Density change    ...    7.7315e-05  Tolerance :   5.0000e-09
  Last DIIS Error            ...    1.2789e-03  Tolerance :   5.0000e-07
  Last Orbital Gradient      ...    1.5313e-06  Tolerance :   1.0000e-05
  Last Orbital Rotation      ...    1.5073e-06  Tolerance :   1.0000e-05


----------------
ORBITAL ENERGIES
----------------

  NO   OCC          E(Eh)            E(eV) 
   0   2.0000     -78.903121     -2147.0631 
   1   2.0000     -19.995762      -544.1123 
   2   2.0000     -19.992660      -544.0279 
   3   2.0000     -19.933650      -542.4222 
   4   2.0000     -19.912473      -541.8460 
   5   2.0000     -15.132794      -411.7843 
   6   2.0000     -15.130033      -411.7091 
   7   2.0000     -15.110027      -411.1647 
   8   2.0000     -15.107030      -411.0832 
   9   2.0000     -15.059150      -409.7803 
  10   2.0000     -10.983476      -298.8756 
  11   2.0000     -10.876881      -295.9750 
  12   2.0000     -10.865701      -295.6707 
  13   2.0000     -10.845455      -295.1198 
  14   2.0000     -10.843809      -295.0751 
  15   2.0000     -10.837604      -294.9062 
  16   2.0000     -10.834917      -294.8331 
  17   2.0000     -10.796337      -293.7833 
  18   2.0000      -7.182719      -195.4517 
  19   2.0000      -5.180816      -140.9772 
  20   2.0000      -5.180032      -140.9558 
  21   2.0000      -5.177565      -140.8887 
  22   2.0000      -1.267588       -34.4928 
  23   2.0000      -1.236289       -33.6411 
  24   2.0000      -1.220825       -33.2203 
  25   2.0000      -1.218962       -33.1696 
  26   2.0000      -1.152148       -31.3515 
  27   2.0000      -1.115881       -30.3647 
  28   2.0000      -1.102000       -29.9869 
  29   2.0000      -1.086816       -29.5738 
  30   2.0000      -1.057040       -28.7635 
  31   2.0000      -0.927063       -25.2267 
  32   2.0000      -0.888650       -24.1814 
  33   2.0000      -0.854423       -23.2500 
  34   2.0000      -0.842053       -22.9134 
  35   2.0000      -0.815196       -22.1826 
  36   2.0000      -0.774199       -21.0670 
  37   2.0000      -0.743195       -20.2234 
  38   2.0000      -0.721218       -19.6253 
  39   2.0000      -0.696874       -18.9629 
  40   2.0000      -0.682583       -18.5740 
  41   2.0000      -0.666098       -18.1255 
  42   2.0000      -0.662901       -18.0384 
  43   2.0000      -0.618197       -16.8220 
  44   2.0000      -0.616392       -16.7729 
  45   2.0000      -0.605614       -16.4796 
  46   2.0000      -0.584542       -15.9062 
  47   2.0000      -0.575353       -15.6562 
  48   2.0000      -0.568346       -15.4655 
  49   2.0000      -0.565311       -15.3829 
  50   2.0000      -0.553479       -15.0609 
  51   2.0000      -0.552904       -15.0453 
  52   2.0000      -0.548210       -14.9175 
  53   2.0000      -0.532570       -14.4920 
  54   2.0000      -0.524724       -14.2785 
  55   2.0000      -0.521854       -14.2004 
  56   2.0000      -0.518171       -14.1002 
  57   2.0000      -0.512003       -13.9323 
  58   2.0000      -0.492795       -13.4096 
  59   2.0000      -0.476957       -12.9787 
  60   2.0000      -0.470368       -12.7994 
  61   2.0000      -0.466471       -12.6933 
  62   2.0000      -0.440688       -11.9917 
  63   2.0000      -0.436956       -11.8902 
  64   2.0000      -0.399104       -10.8602 
  65   2.0000      -0.397047       -10.8042 
  66   2.0000      -0.392914       -10.6917 
  67   2.0000      -0.384647       -10.4668 
  68   2.0000      -0.379603       -10.3295 
  69   2.0000      -0.377056       -10.2602 
  70   2.0000      -0.367765       -10.0074 
  71   2.0000      -0.355948        -9.6858 
  72   2.0000      -0.349680        -9.5153 
  73   2.0000      -0.339252        -9.2315 
  74   2.0000      -0.281852        -7.6696 
  75   0.0000       0.028534         0.7764 
  76   0.0000       0.042449         1.1551 
  77   0.0000       0.046952         1.2776 
  78   0.0000       0.050960         1.3867 
  79   0.0000       0.062129         1.6906 
  80   0.0000       0.062570         1.7026 
  81   0.0000       0.066580         1.8117 
  82   0.0000       0.069666         1.8957 
  83   0.0000       0.074466         2.0263 
  84   0.0000       0.081412         2.2153 
  85   0.0000       0.086901         2.3647 
*Only the first 10 virtual orbitals were printed.

                    ********************************
                    * MULLIKEN POPULATION ANALYSIS *
                    ********************************

-----------------------
MULLIKEN ATOMIC CHARGES
-----------------------
   0 C :   -0.166074
   1 C :   -0.378868
   2 O :   -0.496527
   3 O :   -0.768377
   4 O :   -0.725719
   5 O :   -0.583075
   6 P :    1.088878
   7 H :    0.111904
   8 H :    0.188979
   9 H :    0.175208
  10 H :    0.119968
  11 H :    0.311628
  12 H :    0.206641
  13 C :   -0.618633
  14 N :   -0.280335
  15 H :    0.212540
  16 C :    0.470069
  17 N :   -0.258391
  18 H :    0.222540
  19 H :    0.209178
  20 N :   -0.218032
  21 H :    0.177717
  22 H :    0.283696
  23 H :    0.531525
  24 H :    0.309573
  25 H :   -0.151361
  26 C :   -0.354897
  27 N :   -0.469123
  28 N :   -0.335195
  29 H :    0.324322
  30 C :    0.674895
  31 C :    0.149926
  32 H :   -0.140399
  33 C :   -0.043475
  34 H :    0.417673
  35 H :   -0.127242
  36 H :   -0.076225
  37 H :    0.005087
Sum of atomic charges:    0.0000000

--------------------------------
MULLIKEN REDUCED ORBITAL CHARGES
--------------------------------
  0 C s       :     3.234277  s :     3.234277
      pz      :     0.555501  p :     2.797248
      px      :     1.195510
      py      :     1.046237
      dz2     :     0.008891  d :     0.117477
      dxz     :     0.027243
      dyz     :     0.041093
      dx2y2   :     0.016570
      dxy     :     0.023680
      f0      :     0.004032  f :     0.015391
      f+1     :     0.003885
      f-1     :     0.003515
      f+2     :     0.000953
      f-2     :     0.001549
      f+3     :     0.001300
      f-3     :     0.000157
      g0      :     0.000481  g :     0.001679
      g+1     :     0.000311
      g-1     :     0.000385
      g+2     :     0.000154
      g-2     :     0.000172
      g+3     :     0.000076
      g-3     :     0.000029
      g+4     :     0.000028
      g-4     :     0.000042

  1 C s       :     3.239141  s :     3.239141
      pz      :     0.805759  p :     2.984521
      px      :     0.972923
      py      :     1.205839
      dz2     :     0.021888  d :     0.138628
      dxz     :     0.026514
      dyz     :     0.039336
      dx2y2   :     0.033379
      dxy     :     0.017511
      f0      :     0.002851  f :     0.014873
      f+1     :     0.002619
      f-1     :     0.002034
      f+2     :     0.002366
      f-2     :     0.003092
      f+3     :     0.000623
      f-3     :     0.001289
      g0      :     0.000203  g :     0.001704
      g+1     :     0.000403
      g-1     :     0.000091
      g+2     :     0.000312
      g-2     :     0.000283
      g+3     :     0.000148
      g-3     :     0.000167
      g+4     :     0.000037
      g-4     :     0.000060

  2 O s       :     3.841611  s :     3.841611
      pz      :     1.279208  p :     4.643300
      px      :     1.693515
      py      :     1.670577
      dz2     :    -0.000892  d :     0.007473
      dxz     :     0.002998
      dyz     :     0.004352
      dx2y2   :     0.000700
      dxy     :     0.000314
      f0      :     0.001139  f :     0.003984
      f+1     :     0.000855
      f-1     :     0.000669
      f+2     :     0.000419
      f-2     :     0.000446
      f+3     :     0.000227
      f-3     :     0.000230
      g0      :     0.000037  g :     0.000159
      g+1     :     0.000020
      g-1     :     0.000045
      g+2     :     0.000013
      g-2     :     0.000019
      g+3     :     0.000008
      g-3     :     0.000009
      g+4     :     0.000003
      g-4     :     0.000003

  3 O s       :     3.867380  s :     3.867380
      pz      :     1.727422  p :     4.882039
      px      :     1.713841
      py      :     1.440775
      dz2     :     0.000182  d :     0.016686
      dxz     :     0.000262
      dyz     :     0.006551
      dx2y2   :     0.004395
      dxy     :     0.005296
      f0      :     0.000276  f :     0.002201
      f+1     :     0.000068
      f-1     :     0.000234
      f+2     :     0.000308
      f-2     :     0.000244
      f+3     :     0.000449
      f-3     :     0.000622
      g0      :     0.000004  g :     0.000071
      g+1     :     0.000002
      g-1     :     0.000010
      g+2     :     0.000006
      g-2     :     0.000005
      g+3     :     0.000008
      g-3     :     0.000004
      g+4     :     0.000018
      g-4     :     0.000015

  4 O s       :     3.842002  s :     3.842002
      pz      :     1.703766  p :     4.867051
      px      :     1.398491
      py      :     1.764794
      dz2     :    -0.000970  d :     0.014389
      dxz     :     0.007582
      dyz     :     0.002168
      dx2y2   :     0.001411
      dxy     :     0.004198
      f0      :     0.000223  f :     0.002202
      f+1     :     0.000412
      f-1     :     0.000050
      f+2     :     0.000438
      f-2     :     0.000148
      f+3     :     0.000406
      f-3     :     0.000526
      g0      :     0.000006  g :     0.000074
      g+1     :     0.000011
      g-1     :     0.000001
      g+2     :     0.000009
      g-2     :     0.000002
      g+3     :     0.000010
      g-3     :     0.000004
      g+4     :     0.000014
      g-4     :     0.000017

  5 O s       :     3.887624  s :     3.887624
      pz      :     1.304388  p :     4.684289
      px      :     1.645189
      py      :     1.734712
      dz2     :    -0.006198  d :     0.006925
      dxz     :     0.006552
      dyz     :     0.005128
      dx2y2   :     0.000362
      dxy     :     0.001081
      f0      :     0.000870  f :     0.004080
      f+1     :     0.001060
      f-1     :     0.000609
      f+2     :     0.000712
      f-2     :     0.000523
      f+3     :     0.000147
      f-3     :     0.000159
      g0      :     0.000019  g :     0.000157
      g+1     :     0.000034
      g-1     :     0.000013
      g+2     :     0.000038
      g-2     :     0.000022
      g+3     :     0.000017
      g-3     :     0.000012
      g+4     :     0.000002
      g-4     :     0.000001

  6 P s       :     5.170274  s :     5.170274
      pz      :     2.633833  p :     7.797700
      px      :     2.600452
      py      :     2.563415
      dz2     :     0.099594  d :     0.755838
      dxz     :     0.145451
      dyz     :     0.166370
      dx2y2   :     0.181470
      dxy     :     0.162952
      f0      :     0.023764  f :     0.161513
      f+1     :     0.018028
      f-1     :     0.011348
      f+2     :     0.035029
      f-2     :     0.013550
      f+3     :     0.019780
      f-3     :     0.040015
      g0      :     0.002013  g :     0.025796
      g+1     :     0.002378
      g-1     :     0.002855
      g+2     :     0.002982
      g-2     :     0.002625
      g+3     :     0.003578
      g-3     :     0.002294
      g+4     :     0.003623
      g-4     :     0.003448

  7 H s       :     0.858763  s :     0.858763
      pz      :     0.006958  p :     0.026054
      px      :     0.017212
      py      :     0.001884
      dz2     :     0.001024  d :     0.003068
      dxz     :     0.000460
      dyz     :     0.000341
      dx2y2   :     0.000842
      dxy     :     0.000400
      f0      :     0.000016  f :     0.000211
      f+1     :     0.000038
      f-1     :     0.000032
      f+2     :     0.000044
      f-2     :     0.000014
      f+3     :     0.000015
      f-3     :     0.000051

  8 H s       :     0.755782  s :     0.755782
      pz      :     0.003222  p :     0.051150
      px      :     0.042284
      py      :     0.005645
      dz2     :     0.001024  d :     0.003858
      dxz     :     0.000722
      dyz     :     0.000334
      dx2y2   :     0.000380
      dxy     :     0.001398
      f0      :     0.000012  f :     0.000231
      f+1     :     0.000068
      f-1     :     0.000005
      f+2     :     0.000013
      f-2     :     0.000044
      f+3     :     0.000010
      f-3     :     0.000078

  9 H s       :     0.762950  s :     0.762950
      pz      :     0.004291  p :     0.057628
      px      :     0.012279
      py      :     0.041057
      dz2     :     0.000264  d :     0.003978
      dxz     :     0.000344
      dyz     :     0.001352
      dx2y2   :     0.001173
      dxy     :     0.000846
      f0      :     0.000031  f :     0.000235
      f+1     :     0.000011
      f-1     :     0.000018
      f+2     :     0.000020
      f-2     :     0.000021
      f+3     :     0.000022
      f-3     :     0.000113

 10 H s       :     0.801913  s :     0.801913
      pz      :     0.037145  p :     0.074778
      px      :     0.008807
      py      :     0.028826
      dz2     :     0.001113  d :     0.003133
      dxz     :     0.000732
      dyz     :     0.000455
      dx2y2   :     0.000556
      dxy     :     0.000277
      f0      :     0.000045  f :     0.000207
      f+1     :     0.000030
      f-1     :     0.000032
      f+2     :     0.000060
      f-2     :     0.000016
      f+3     :     0.000011
      f-3     :     0.000014

 11 H s       :     0.656786  s :     0.656786
      pz      :    -0.002308  p :     0.027741
      px      :     0.005980
      py      :     0.024068
      dz2     :     0.000459  d :     0.003626
      dxz     :     0.000346
      dyz     :     0.001174
      dx2y2   :     0.000429
      dxy     :     0.001218
      f0      :     0.000014  f :     0.000219
      f+1     :     0.000004
      f-1     :     0.000048
      f+2     :     0.000037
      f-2     :     0.000035
      f+3     :     0.000066
      f-3     :     0.000015

 12 H s       :     0.752009  s :     0.752009
      pz      :     0.013333  p :     0.037396
      px      :     0.022541
      py      :     0.001523
      dz2     :     0.000296  d :     0.003727
      dxz     :     0.001287
      dyz     :     0.000224
      dx2y2   :     0.000945
      dxy     :     0.000976
      f0      :     0.000023  f :     0.000227
      f+1     :     0.000024
      f-1     :     0.000005
      f+2     :     0.000045
      f-2     :     0.000016
      f+3     :     0.000076
      f-3     :     0.000036

 13 C s       :     3.256804  s :     3.256804
      pz      :     0.778313  p :     3.255311
      px      :     1.161305
      py      :     1.315693
      dz2     :     0.012772  d :     0.094095
      dxz     :     0.028661
      dyz     :     0.019464
      dx2y2   :     0.011567
      dxy     :     0.021632
      f0      :     0.003197  f :     0.011340
      f+1     :     0.003313
      f-1     :     0.001952
      f+2     :     0.000775
      f-2     :     0.000530
      f+3     :    -0.000017
      f-3     :     0.001591
      g0      :     0.000313  g :     0.001083
      g+1     :     0.000291
      g-1     :     0.000156
      g+2     :     0.000084
      g-2     :     0.000079
      g+3     :     0.000010
      g-3     :     0.000081
      g+4     :     0.000029
      g-4     :     0.000040

 14 N s       :     3.663686  s :     3.663686
      pz      :     1.103281  p :     3.565247
      px      :     1.383088
      py      :     1.078878
      dz2     :     0.018817  d :     0.042753
      dxz     :     0.001724
      dyz     :     0.008845
      dx2y2   :     0.009001
      dxy     :     0.004367
      f0      :     0.001508  f :     0.008187
      f+1     :     0.001567
      f-1     :     0.001658
      f+2     :     0.000878
      f-2     :     0.001005
      f+3     :     0.000616
      f-3     :     0.000955
      g0      :     0.000102  g :     0.000462
      g+1     :     0.000078
      g-1     :     0.000074
      g+2     :     0.000014
      g-2     :     0.000031
      g+3     :     0.000044
      g-3     :     0.000043
      g+4     :     0.000044
      g-4     :     0.000033

 15 H s       :     0.722643  s :     0.722643
      pz      :     0.010066  p :     0.056098
      px      :     0.017897
      py      :     0.028136
      dz2     :     0.001725  d :     0.008031
      dxz     :     0.000703
      dyz     :     0.001752
      dx2y2   :     0.000897
      dxy     :     0.002954
      f0      :     0.000021  f :     0.000687
      f+1     :     0.000004
      f-1     :     0.000214
      f+2     :     0.000085
      f-2     :     0.000121
      f+3     :     0.000185
      f-3     :     0.000057

 16 C s       :     3.161680  s :     3.161680
      pz      :     0.693823  p :     2.042836
      px      :     0.689305
      py      :     0.659708
      dz2     :     0.119079  d :     0.284114
      dxz     :     0.001350
      dyz     :     0.044355
      dx2y2   :     0.060785
      dxy     :     0.058546
      f0      :     0.005222  f :     0.037816
      f+1     :     0.003424
      f-1     :     0.007984
      f+2     :     0.006350
      f-2     :     0.004313
      f+3     :     0.005916
      f-3     :     0.004607
      g0      :     0.000428  g :     0.003485
      g+1     :     0.000315
      g-1     :     0.000305
      g+2     :     0.000451
      g-2     :     0.000397
      g+3     :     0.000473
      g-3     :     0.000417
      g+4     :     0.000315
      g-4     :     0.000383

 17 N s       :     3.555071  s :     3.555071
      pz      :     1.345130  p :     3.677887
      px      :     1.290291
      py      :     1.042465
      dz2     :     0.001914  d :     0.019306
      dxz     :     0.009905
      dyz     :     0.000199
      dx2y2   :    -0.000004
      dxy     :     0.007291
      f0      :     0.000466  f :     0.005833
      f+1     :     0.000364
      f-1     :     0.001032
      f+2     :     0.000832
      f-2     :     0.001157
      f+3     :     0.001092
      f-3     :     0.000889
      g0      :     0.000025  g :     0.000295
      g+1     :     0.000003
      g-1     :     0.000042
      g+2     :     0.000038
      g-2     :     0.000009
      g+3     :     0.000034
      g-3     :     0.000053
      g+4     :     0.000053
      g-4     :     0.000040

 18 H s       :     0.716935  s :     0.716935
      pz      :     0.034846  p :     0.051944
      px      :     0.013323
      py      :     0.003775
      dz2     :     0.002853  d :     0.007866
      dxz     :     0.000918
      dyz     :     0.001418
      dx2y2   :     0.001456
      dxy     :     0.001222
      f0      :     0.000143  f :     0.000715
      f+1     :     0.000127
      f-1     :     0.000088
      f+2     :     0.000147
      f-2     :     0.000109
      f+3     :     0.000059
      f-3     :     0.000044

 19 H s       :     0.689586  s :     0.689586
      pz      :     0.053178  p :     0.091104
      px      :     0.032057
      py      :     0.005869
      dz2     :     0.002023  d :     0.009397
      dxz     :     0.001702
      dyz     :     0.001748
      dx2y2   :     0.002688
      dxy     :     0.001237
      f0      :     0.000032  f :     0.000736
      f+1     :     0.000132
      f-1     :     0.000108
      f+2     :     0.000132
      f-2     :     0.000094
      f+3     :     0.000114
      f-3     :     0.000123

 20 N s       :     3.563012  s :     3.563012
      pz      :     1.176988  p :     3.619371
      px      :     1.348875
      py      :     1.093508
      dz2     :     0.010821  d :     0.029817
      dxz     :     0.006951
      dyz     :    -0.001358
      dx2y2   :     0.008632
      dxy     :     0.004770
      f0      :     0.001098  f :     0.005529
      f+1     :     0.001026
      f-1     :     0.000608
      f+2     :     0.000902
      f-2     :     0.001014
      f+3     :     0.000453
      f-3     :     0.000428
      g0      :     0.000041  g :     0.000302
      g+1     :     0.000072
      g-1     :     0.000034
      g+2     :     0.000044
      g-2     :     0.000050
      g+3     :     0.000022
      g-3     :     0.000024
      g+4     :     0.000009
      g-4     :     0.000007

 21 H s       :     0.755683  s :     0.755683
      pz      :     0.021394  p :     0.058047
      px      :     0.015855
      py      :     0.020798
      dz2     :     0.000585  d :     0.007861
      dxz     :     0.000247
      dyz     :     0.003128
      dx2y2   :     0.001105
      dxy     :     0.002796
      f0      :     0.000078  f :     0.000692
      f+1     :     0.000018
      f-1     :     0.000088
      f+2     :     0.000147
      f-2     :     0.000042
      f+3     :     0.000210
      f-3     :     0.000109

 22 H s       :     0.663496  s :     0.663496
      pz      :    -0.006509  p :     0.043281
      px      :     0.013821
      py      :     0.035969
      dz2     :     0.001682  d :     0.008821
      dxz     :     0.001027
      dyz     :     0.001937
      dx2y2   :     0.002888
      dxy     :     0.001286
      f0      :     0.000027  f :     0.000707
      f+1     :     0.000095
      f-1     :     0.000135
      f+2     :     0.000116
      f-2     :     0.000089
      f+3     :     0.000092
      f-3     :     0.000153

 23 H s       :     0.445664  s :     0.445664
      pz      :    -0.016363  p :     0.019063
      px      :     0.006813
      py      :     0.028613
      dz2     :     0.000753  d :     0.003515
      dxz     :     0.000237
      dyz     :     0.000855
      dx2y2   :     0.000420
      dxy     :     0.001250
      f0      :     0.000012  f :     0.000233
      f+1     :     0.000004
      f-1     :     0.000063
      f+2     :     0.000028
      f-2     :     0.000028
      f+3     :     0.000086
      f-3     :     0.000012

 24 H s       :     0.637464  s :     0.637464
      pz      :    -0.000415  p :     0.048794
      px      :     0.041128
      py      :     0.008081
      dz2     :     0.001113  d :     0.003931
      dxz     :     0.000451
      dyz     :     0.000506
      dx2y2   :     0.001326
      dxy     :     0.000535
      f0      :     0.000016  f :     0.000239
      f+1     :     0.000043
      f-1     :     0.000031
      f+2     :     0.000053
      f-2     :     0.000015
      f+3     :     0.000070
      f-3     :     0.000010

 25 H s       :     1.065592  s :     1.065592
      pz      :     0.007822  p :     0.081778
      px      :     0.045741
      py      :     0.028214
      dz2     :     0.000341  d :     0.003751
      dxz     :     0.001135
      dyz     :     0.000290
      dx2y2   :     0.001200
      dxy     :     0.000784
      f0      :     0.000031  f :     0.000241
      f+1     :     0.000023
      f-1     :     0.000014
      f+2     :     0.000020
      f-2     :     0.000028
      f+3     :     0.000108
      f-3     :     0.000017

 26 C s       :     3.249860  s :     3.249860
      pz      :     1.006387  p :     2.994662
      px      :     0.967382
      py      :     1.020893
      dz2     :     0.046868  d :     0.102737
      dxz     :    -0.001060
      dyz     :     0.021078
      dx2y2   :     0.001177
      dxy     :     0.034674
      f0      :     0.001143  f :     0.007032
      f+1     :     0.000359
      f-1     :     0.001970
      f+2     :     0.000820
      f-2     :     0.000839
      f+3     :     0.001043
      f-3     :     0.000858
      g0      :     0.000058  g :     0.000604
      g+1     :     0.000023
      g-1     :     0.000129
      g+2     :     0.000098
      g-2     :     0.000106
      g+3     :     0.000055
      g-3     :     0.000041
      g+4     :     0.000029
      g-4     :     0.000066

 27 N s       :     3.762311  s :     3.762311
      pz      :     1.202066  p :     3.643121
      px      :     1.346085
      py      :     1.094970
      dz2     :     0.017125  d :     0.054812
      dxz     :     0.016282
      dyz     :     0.000499
      dx2y2   :     0.012647
      dxy     :     0.008259
      f0      :     0.001653  f :     0.008346
      f+1     :     0.000863
      f-1     :     0.000995
      f+2     :     0.001182
      f-2     :     0.001203
      f+3     :     0.001395
      f-3     :     0.001055
      g0      :     0.000054  g :     0.000532
      g+1     :     0.000037
      g-1     :     0.000097
      g+2     :     0.000069
      g-2     :     0.000067
      g+3     :     0.000024
      g-3     :     0.000055
      g+4     :     0.000070
      g-4     :     0.000060

 28 N s       :     3.625489  s :     3.625489
      pz      :     1.191706  p :     3.608535
      px      :     1.131503
      py      :     1.285326
      dz2     :     0.017464  d :     0.090149
      dxz     :     0.026469
      dyz     :     0.001633
      dx2y2   :     0.021783
      dxy     :     0.022801
      f0      :     0.000619  f :     0.010486
      f+1     :     0.002234
      f-1     :     0.001405
      f+2     :     0.001781
      f-2     :     0.001681
      f+3     :     0.001045
      f-3     :     0.001721
      g0      :     0.000042  g :     0.000536
      g+1     :     0.000066
      g-1     :     0.000031
      g+2     :     0.000049
      g-2     :     0.000052
      g+3     :     0.000090
      g-3     :     0.000093
      g+4     :     0.000059
      g-4     :     0.000053

 29 H s       :     0.619243  s :     0.619243
      pz      :     0.008511  p :     0.048568
      px      :     0.017158
      py      :     0.022899
[...]
 17 N      7.2584     7.0000    -0.2584     3.0584     3.0584     0.0000
 18 H      0.7775     1.0000     0.2225     1.0071     1.0071     0.0000
 19 H      0.7908     1.0000     0.2092     1.0132     1.0132     0.0000
 20 N      7.2180     7.0000    -0.2180     3.0745     3.0745     0.0000
 21 H      0.8223     1.0000     0.1777     1.0218     1.0218    -0.0000
 22 H      0.7163     1.0000     0.2837     0.8390     0.8390     0.0000
 23 H      0.4685     1.0000     0.5315     0.5200     0.5200     0.0000
 24 H      0.6904     1.0000     0.3096     0.9655     0.9655     0.0000
 25 H      1.1514     1.0000    -0.1514     1.3448     1.3448     0.0000
 26 C      6.3549     6.0000    -0.3549     3.9591     3.9591    -0.0000
 27 N      7.4691     7.0000    -0.4691     2.8924     2.8924     0.0000
 28 N      7.3352     7.0000    -0.3352     3.3697     3.3697     0.0000
 29 H      0.6757     1.0000     0.3243     0.8932     0.8932    -0.0000
 30 C      5.3251     6.0000     0.6749     3.1141     3.1141     0.0000
 31 C      5.8501     6.0000     0.1499     3.9763     3.9763     0.0000
 32 H      1.1404     1.0000    -0.1404     1.3194     1.3194     0.0000
 33 C      6.0435     6.0000    -0.0435     3.5813     3.5813     0.0000
 34 H      0.5823     1.0000     0.4177     0.6888     0.6888     0.0000
 35 H      1.1272     1.0000    -0.1272     1.2898     1.2898    -0.0000
 36 H      1.0762     1.0000    -0.0762     1.4062     1.4062    -0.0000
 37 H      0.9949     1.0000     0.0051     1.1251     1.1251    -0.0000

  Mayer bond orders larger than 0.100000
B(  0-C ,  2-O ) :   0.8284 B(  0-C ,  7-H ) :   0.9836 B(  0-C ,  8-H ) :   0.9381 
B(  0-C ,  9-H ) :   0.9327 B(  1-C ,  5-O ) :   0.8015 B(  1-C , 10-H ) :   1.1363 
B(  1-C , 11-H ) :   0.8150 B(  1-C , 12-H ) :   0.9187 B(  1-C , 13-C ) :   0.2247 
B(  1-C , 23-H ) :  -0.7701 B(  1-C , 24-H ) :   0.5352 B(  1-C , 30-C ) :  -0.5019 
B(  1-C , 31-C ) :   0.1519 B(  1-C , 32-H ) :  -0.1575 B(  1-C , 33-C ) :  -0.5070 
B(  1-C , 34-H ) :   1.2099 B(  1-C , 35-H ) :  -0.2037 B(  2-O ,  4-O ) :  -0.1149 
B(  2-O ,  6-P ) :   0.9581 B(  3-O ,  6-P ) :   1.8221 B(  4-O ,  6-P ) :   1.5569 
B(  4-O , 19-H ) :   0.1257 B(  5-O ,  6-P ) :   0.8296 B(  5-O , 13-C ) :  -0.1061 
B(  5-O , 23-H ) :   0.2203 B(  5-O , 30-C ) :   0.1174 B(  5-O , 34-H ) :  -0.1642 
B(  6-P , 23-H ) :  -0.2012 B(  6-P , 24-H ) :   0.1098 B(  6-P , 30-C ) :  -0.1161 
B(  6-P , 34-H ) :   0.1897 B(  7-H , 10-H ) :   0.1012 B(  8-H , 10-H ) :  -0.1573 
B( 10-H , 13-C ) :  -0.3441 B( 10-H , 23-H ) :   1.5291 B( 10-H , 24-H ) :  -1.1809 
B( 10-H , 30-C ) :   1.2611 B( 10-H , 31-C ) :  -0.2912 B( 10-H , 32-H ) :   0.2941 
B( 10-H , 33-C ) :   1.0083 B( 10-H , 34-H ) :  -2.9179 B( 10-H , 35-H ) :   0.5676 
B( 11-H , 23-H ) :  -0.3476 B( 11-H , 24-H ) :   0.3087 B( 11-H , 30-C ) :  -0.2282 
B( 11-H , 31-C ) :   0.1007 B( 11-H , 33-C ) :  -0.2344 B( 11-H , 34-H ) :   0.4503 
B( 12-H , 23-H ) :  -0.3886 B( 12-H , 24-H ) :   0.3313 B( 12-H , 26-C ) :  -0.1390 
B( 12-H , 30-C ) :  -0.5455 B( 12-H , 33-C ) :  -0.2803 B( 12-H , 34-H ) :   1.2548 
B( 12-H , 35-H ) :  -0.2815 B( 13-C , 14-N ) :   1.0734 B( 13-C , 23-H ) :   0.6699 
B( 13-C , 24-H ) :   0.8047 B( 13-C , 25-H ) :   1.3276 B( 14-N , 15-H ) :   0.9358 
B( 14-N , 16-C ) :   0.9830 B( 14-N , 23-H ) :  -0.1195 B( 16-C , 17-N ) :   1.3068 
B( 16-C , 20-N ) :   1.2936 B( 17-N , 18-H ) :   0.9571 B( 17-N , 19-H ) :   0.9368 
B( 20-N , 21-H ) :   1.0009 B( 20-N , 22-H ) :   0.9257 B( 23-H , 34-H ) :  -0.1093 
B( 26-C , 30-C ) :   0.5670 B( 26-C , 35-H ) :   1.1673 B( 26-C , 36-H ) :   1.1973 
B( 26-C , 37-H ) :   1.0917 B( 27-N , 30-C ) :   1.1774 B( 27-N , 31-C ) :   1.5867 
B( 27-N , 32-H ) :   0.1206 B( 28-N , 29-H ) :   0.8449 B( 28-N , 30-C ) :  -0.1863 
B( 28-N , 31-C ) :   1.3586 B( 28-N , 33-C ) :   1.2484 B( 30-C , 31-C ) :  -0.1107 
B( 30-C , 33-C ) :   1.6743 B( 30-C , 37-H ) :  -0.1254 B( 31-C , 32-H ) :   1.1825 
B( 33-C , 34-H ) :   0.7193 B( 33-C , 35-H ) :   0.1392 B( 34-H , 35-H ) :  -0.1007 
B( 35-H , 36-H ) :   0.1292 

-------
TIMINGS
-------

Total SCF time: 0 days 0 hours 9 min 9 sec 

Total time                  ....     549.931 sec
Sum of individual times     ....     550.807 sec  (100.2%)

SCF preparation             ....       1.590 sec  (  0.3%)
Fock matrix formation       ....     525.528 sec  ( 95.6%)
  Startup                   ....       0.746 sec  (  0.1% of F)
  Split-RI-J                ....      24.836 sec  (  4.7% of F)
  Chain of spheres X        ....     414.281 sec  ( 78.8% of F)
  XC integration            ....      50.141 sec  (  9.5% of F)
    XC Preparation          ....       0.000 sec  (  0.0% of XC)
    Basis function eval.    ....       4.978 sec  (  9.9% of XC)
    Density eval.           ....      17.886 sec  ( 35.7% of XC)
    XC-Functional eval.     ....       0.106 sec  (  0.2% of XC)
    XC-Potential eval.      ....      19.598 sec  ( 39.1% of XC)
  CPCM terms                ....      33.725 sec  (  6.4% of F)
Diagonalization             ....       0.000 sec  (  0.0%)
Density matrix formation    ....       2.144 sec  (  0.4%)
Total Energy calculation    ....       1.045 sec  (  0.2%)
Population analysis         ....       0.820 sec  (  0.1%)
Orbital Transformation      ....       2.615 sec  (  0.5%)
Orbital Orthonormalization  ....       0.000 sec  (  0.0%)
DIIS solution               ....      11.089 sec  (  2.0%)
SOSCF solution              ....       5.553 sec  (  1.0%)
Finished LeanSCF after 550.7 sec

Maximum memory used throughout the entire LEANSCF-calculation: 415.6 MB


           ************************************************************
           *        Program running with 10 parallel MPI-processes    *
           *              working on a common directory               *
           ************************************************************

------------------------------------------------------------------------------
                                ORCA  MP2 
------------------------------------------------------------------------------

Freezing NCore=44 chemical core electrons

-------------
RI-MP2 ENERGY
-------------
Dimension of the orbital basis            ... 1819
Dimension of the AuxC basis               ... 4152
Memory devoted to MP2                     ... 2000 MB   
Data format for matrix containers         ... DOUBLE
Compression type for matrix containers    ... UNCOMPRESSED
Scaling for aa/bb pairs                   ...   5.660e-02
Scaling for ab pairs                      ...   5.935e-01
Overall scaling of the MP2 energy         ...   1.000e+00

-----------------------
SHARK RI TRANSFORMATION
-----------------------

Number of basis functions                ...   1819
Number of aux functions                  ...   4152
Number of operators                      ...      1
Generation of IJK                        ... NO
Generation of IAK                        ... YES
Generation of ABK                        ... NO
Orbital Range Operator  0:   22-  74 to   75-1818

Aux basis identifier                     ...   AUXC
Contraction scheme used                  ... SEGMENTED
Do orthogonalization                     ... YES
All operator combinations                ... NO
Transpose (ia|K)                         ... NO
Integral generator used                  ... LIBINT
Starting integral generation + trafo... 
Half trafo (segmented) done. Total time = 41.3 sec. integrals=  9.5 sec trafo= 15.4 sec
Integral generation and half transformation done ( 41.3 sec)

Reading or making V^(-1/2)          ... done (  0.2 sec)
Sorting IAK integrals               ... done ( 19.9 sec)

SHARK RI integral transformation done. Total time = 61.5 sec.

Opening buffers                              ... done

Starting loop over batches of integrals:

Operator 0  - window                       ... ( 22- 74)x( 75-1818)
Operator 0  - Memory available             ...  2000 MB
Operator 0  - Memory needed per MO         ...  55.2 MB
Operator 0  - Number of orbitals per batch ... 6
Operator 0  - Number of batches            ... 1

OPERATOR  0   PASS   0:  MOs    22 ...   27 +   28 ...   33 +   34 ...   39 +   40 ...   45
                            +   46 ...   51 +   52 ...   57 +   58 ...   63 +   64 ...   69
                            +   70 ...   74
  Reading integrals       ... ok
  Internal MO  24
  Internal MO  27
Time spent in pair loops =   312.650 sec
Deleting buffers (Ka|jb) ...done

-----------------------------------------------
 RI-MP2 CORRELATION ENERGY:     -1.928814776 Eh
-----------------------------------------------


-------
TIMINGS
-------

Total time                :  382.531 sec
Integral trafo            :   61.519 sec ( 16.1%)
I/O of integrals          :    0.214 sec (  0.1%)
K(i,j) operators          :    8.322 sec (  2.2%)
T(i,j) pair energies      :    0.660 sec (  0.2%)
V**(-1/2)                 :    8.361 sec (  2.2%)


---------------------------------------
MP2 TOTAL ENERGY:    -1231.768887416 Eh
---------------------------------------

Maximum memory used throughout the entire MP2-calculation: 745.6 MB


-------------------------------------------------------------------------------
                          DFT DISPERSION CORRECTION                            
                                                                               
                                DFTD4 V3.4.0                                   
-------------------------------------------------------------------------------
The REV-DSD-PBEP86-2021 functional is recognized
A user input s6-coefficient scaling factor has been recognized
A user input a1-coefficient scaling factor has been recognized
A user input s8-coefficient scaling factor has been recognized
A user input a2-coefficient scaling factor has been recognized
A user input s9-coefficient scaling factor has been recognized
Active option DFTDOPT                   ...         5   

-------------------------   ----------------
Dispersion correction           -0.025166097
-------------------------   ----------------


-------------------------   --------------------
FINAL SINGLE POINT ENERGY     -1231.794053513378
-------------------------   --------------------



           ************************************************************
           *        Program running with 10 parallel MPI-processes    *
           *              working on a common directory               *
           ************************************************************

------------------------------------------------------------------------------
                              ORCA PROPERTY CALCULATIONS
------------------------------------------------------------------------------

GBWName                                 ... rh-pg_cplx.gbw
Number of atoms                         ...     38
Number of basis functions               ...   1819
Max core memory                         ...   2000 MB

Electric properties:
Dipole moment                           ... YES
Quadrupole moment                       ...  NO
Static polarizability (Dipole/Dipole)   ...  NO
Static polarizability (Dipole/Quad.)    ...  NO
Static polarizability (Quad./Quad.)     ...  NO
Static polarizability (Velocity)        ...  NO

Atomic electric properties:
Dipole moment                           ...  NO
Quadrupole moment                       ...  NO
Static polarizability                   ...  NO

Choice of electric origin               ... Center of mass
Position of electric origin             ...     0.991434     2.643099     6.559908

General magnetic properties:
Magnetizability                         ...  NO

EPR properties:
g-Tensor (aka g-matrix)                 ...  NO
Zero-Field splitting spin-orbit         ...  NO
Zero-field splitting spin-spin          ...  NO
Hyperfine couplings                     ...  NO (   0 nuclei)
Quadrupole couplings                    ...  NO (   0 nuclei)
Contact density                         ...  NO (   0 nuclei)

NMR properties:
Chemical shifts                         ...  NO (   0 nuclei)
Spin-rotation constants                 ...  NO (   0 nuclei)
Spin-spin couplings                     ...  NO (   0 nuclei,    0 pairs)

Choice of magnetic origin               ... GIAO
Position of magnetic origin             ...     0.000000     0.000000     0.000000

Properties with geometric perturbations:
SCF Hessian                             ...  NO
IR spectrum                             ...  NO
VCD spectrum                            ...  NO
X-ray spectroscopy properties:
SCF XES/XAS/RIXS spectra                ...  NO


-------------
DIPOLE MOMENT
-------------

Method             : SCF
Type of density    : Electron Density
Multiplicity       :   1
Irrep              :   0
Energy             : -1229.8400726404991019 Eh
Relativity type    : 
Basis              : AO
                                X                 Y                 Z
Electronic contribution:     -3.712297193       6.458852130       3.951120200
Nuclear contribution   :      7.357447567      -8.194215340      -8.124023295
                        -----------------------------------------
Total Dipole Moment    :      3.645150374      -1.735363210      -4.172903096
                        -----------------------------------------
Magnitude (a.u.)       :      5.806180067
Magnitude (Debye)      :     14.758136881



--------------------
Rotational spectrum 
--------------------
 
Rotational constants in cm-1:             0.012959             0.008961             0.006370 
Rotational constants in MHz :           388.503971           268.651781           190.968452 

Dipole components along the rotational axes: 
x,y,z [a.u.] :    -5.122232    -2.378040    -1.348848 
x,y,z [Debye]:   -13.019679    -6.044498    -3.428499 

 

Dipole moment calculation done in   0.2 sec 

Maximum memory used throughout the entire PROP-calculation: 272.0 MB

--------------------------------
SUGGESTED CITATIONS FOR THIS RUN
--------------------------------

Below you find a list of papers that are relevant to this ORCA run
We neither can nor want to force you to cite these papers, but we appreciate if you do
You receive ORCA, which is the product of decades of hard work by many enthusiastic individuals, for free
The only thing we kindly ask in return is that you cite our papers,
We deeply appreciate it, if you show your appreciation for ORCA by not just citing the generic ORCA reference.

Please note that relegating all ORCA citations to the supporting information does *not* help us.
SI sections are not indexed - citations you put there will not count into any citation statistics
But we need these citations in order to attract the funding resources that allow us to do what we are doing

Therefore, if you are a happy ORCA user, please consider citing a few of the papers listed below in the main body of your paper

In addition to the list printed below, the program has created the file rh-pg_cplx.bibtex that contains the list in bibtex format
You can import this file easily into all common literature databanks and citation aid programs


List of essential papers. We consider these as the minimum necessary citations

  1. Neese,F.
     Software update: the ORCA program system, version 5.0
     WIRES Comput. Molec. Sci., 2022 12(1)e1606
     doi.org/10.1002/wcms.1606

List of papers to cite with high priority. The work reported in these papers was absolutely
necessary for this run to complete.
Our perspective: the developers of density functionals and basis sets usually get cited in chemistry papers
Good! But without the algorithms to do something with them, the functionals or basis sets would not do anything.
Hence, in our opinion, the algorithm design and method developments papers are equally worthy of getting cited

  1. Neese,F.
     An improvement of the resolution of the identity approximation for the formation of the Coulomb matrix
     J. Comp. Chem., 2003 24(14)1740-1747
     doi.org/10.1002/jcc.10318
  2. Neese,F.; Wennmohs,F.; Hansen,A.; Becker,U.
     Efficient, approximate and parallel Hartree-Fock and hybrid DFT calculations. A 'chain-of-spheres' algorithm for the Hartree-Fock exchange
     Chem. Phys., 2009 356(1-3)98-109
     doi.org/10.1016/j.chemphys.2008.10.036
  3. Kossmann,S.; Neese,F.
     Efficient Structure Optimization with Second-Order Many-Body Perturbation Theory: The RIJCOSX-MP2 Method
     J. Theo. Comp. Chem., 2010 6 2325-2338
     doi.org/10.1021/ct100199k
  4. Garcia-Rates,M.; Neese,F.
     Effect of the Solute Cavity on the Solvation Energy and its Derivatives within the Framework of the Gaussian Charge Scheme
     J. Comput. Chem., 2020 41 922-939
     doi.org/10.1002/jcc.26139
  5. Helmich-Paris,B.; de Souza,B.; Neese,F.; Izsák,R.
     An improved chain of spheres for exchange algorithm
     J. Chem. Phys., 2021 155 104109
     doi.org/doi: 10.1063/5.0058766.
  6. Neese,F.
     The SHARK Integral Generation and Digestion System
     J. Comp. Chem., 2022  1-16
     doi.org/10.1002/jcc.26942
  7. Caldeweyher,E.; Bannwarth,C.; Grimme,S.
     Extension of the D3 dispersion coefficient model
     J. Chem. Phys., 2017 147 034112
     doi.org/10.1063/1.4993215
  8. Caldeweyher,E.; Ehlert,S.; Hansen,A.; Neugebauer,H.; Spicher,S.; Bannwarth,C.; Grimme,S.
     A generally applicable atomic-charge dependent London dispersion correction
     J. Chem. Phys., 2019 150 154122
     doi.org/10.1063/1.5090222
  9. Caldeweyher,E.; Mewes,J.; Ehlert,S.; Grimme,S.
     Extension and evaluation of the D4 London-dispersion model for periodic systems
     Phys. Chem. Chem. Phys., 2020 22(16)8499-8512
     doi.org/10.1039/D0CP00502A
 10. Wittmann,L.; Gordiy,I.; Friede,M.; Helmich-Paris,B.; Grimme,S.; Hansen,A.; Bursch,M.
     Extension of the D3 and D4 London Dispersion Corrections to the full Actinides Series
     Phys. Chem. Chem. Phys., 2024 26(32)21379-21394
     doi.org/https://doi.org/10.1039/D4CP01514B 

List of suggested additional citations. These are papers that are important in the 'surrounding' of 
of this run, or papers that preceded the highly important papers. If you like your results we are grateful for a citation.

  1. Izsak,R.; Neese,F.
     An overlap fitted chain of spheres exchange method
     J. Chem. Phys., 2011 135 144105
     doi.org/10.1063/1.3646921
  2. Izsak,R.; Hansen,A.; Neese,F.
     The resolution of identity and chain of spheres approximations for the LPNO-CCSD singles Fock term
     Molec. Phys., 2012 110 2413-2417
     doi.org/10.1080/00268976.2012.687466
  3. Neese,F.
     The ORCA program system
     WIRES Comput. Molec. Sci., 2012 2(1)73-78
     doi.org/10.1002/wcms.81
  4. Izsak,R.; Neese,F.; Klopper,W.
     Robust fitting techniques in the chain of spheres approximation to the Fock exchange: The role of the complementary space
     J. Chem. Phys., 2013 139 
     doi.org/10.1063/1.4819264
  5. Neese,F.
     Software update: the ORCA program system, version 4.0
     WIRES Comput. Molec. Sci., 2018 8(1)1-6
     doi.org/10.1002/wcms.1327
  6. Neese,F.; Wennmohs,F.; Becker,U.; Riplinger,C.
     The ORCA quantum chemistry program package
     J. Chem. Phys., 2020 152 Art. No. L224108
     doi.org/10.1063/5.0004608

List of optional additional citations

  1. Neese,F.
     Approximate second-order SCF convergence for spin unrestricted wavefunctions
     Chem. Phys. Lett., 2000 325(1-3)93-98
     doi.org/10.1016/s0009-2614(00)00662-x

Timings for individual modules:

Sum of individual times          ...      954.757 sec (=  15.913 min)
Startup calculation              ...       11.114 sec (=   0.185 min)   1.2 %
SCF iterations                   ...      557.763 sec (=   9.296 min)  58.4 %
Property calculations            ...        1.614 sec (=   0.027 min)   0.2 %
MP2 module                       ...      384.266 sec (=   6.404 min)  40.2 %
                             ****ORCA TERMINATED NORMALLY****
TOTAL RUN TIME: 0 days 0 hours 15 minutes 55 seconds 520 msec
