
                                 *****************
                                 * O   R   C   A *
                                 *****************

                                            #,                                       
                                            ###                                      
                                            ####                                     
                                            #####                                    
                                            ######                                   
                                           ########,                                 
                                     ,,################,,,,,                         
                               ,,#################################,,                 
                          ,,##########################################,,             
                       ,#########################################, ''#####,          
                    ,#############################################,,   '####,        
                  ,##################################################,,,,####,       
                ,###########''''           ''''###############################       
              ,#####''   ,,,,##########,,,,          '''####'''          '####       
            ,##' ,,,,###########################,,,                        '##       
           ' ,,###''''                  '''############,,,                           
         ,,##''                                '''############,,,,        ,,,,,,###''
      ,#''                                            '''#######################'''  
     '                                                          ''''####''''         
             ,#######,   #######,   ,#######,      ##                                
            ,#'     '#,  ##    ##  ,#'     '#,    #''#        ,####,   ,####,        
            ##       ##  ##   ,#'  ##            #'  '#       #'       #'  '#        
            ##       ##  #######   ##           ,######,      #####,   #    #        
            '#,     ,#'  ##    ##  '#,     ,#' ,#      #,     #,   #   #,  ,#        
             '#######'   ##     ##  '#######'  #'      '#     '####' # '####'        



                #########################################################
                #                        -***-                          #
                #          Department of theory and spectroscopy        #
                #                                                       #
                #                      Frank Neese                      #
                #                                                       #
                #     Directorship, Architecture, Infrastructure        #
                #                    SHARK, DRIVERS                     #
                #        Core code/Algorithms in most modules           #
                #                                                       #
                #        Max Planck Institute fuer Kohlenforschung      #
                #                Kaiser Wilhelm Platz 1                 #
                #                 D-45470 Muelheim/Ruhr                 #
                #                      Germany                          #
                #                                                       #
                #                  All rights reserved                  #
                #                        -***-                          #
                #########################################################


                         Program Version 6.0.1  -  RELEASE   -


 With contributions from (in alphabetic order):
[Max-Planck-Institut fuer Kohlenforschung]                               
  Daniel Aravena         : Magnetic Suceptibility                        
  Michael Atanasov       : Ab Initio Ligand Field Theory (pilot matlab implementation)
  Alexander A. Auer      : GIAO ZORA, VPT2 properties, NMR spectrum      
  Ute Becker             : All parallelization in ORCA, NUMFREQ, NUMCALC 
  Giovanni Bistoni       : ED, misc. LED, open-shell LED, HFLD           
  Martin Brehm           : Molecular dynamics                            
  Dmytro Bykov           : pre 5.0 version of the SCF Hessian            
  Marcos Casanova-Páez   : Triplet and SCS-CIS(D). UHF-(DLPNO)-IP/EA/STEOM-CCSD. UHF-CVS-IP/STEOM-CCSD   
  Vijay G. Chilkuri      : MRCI spin determinant printing, contributions to CSF-ICE 
  Pauline Colinet        : FMM embedding                                 
  Dipayan Datta          : RHF DLPNO-CCSD density                        
  Achintya Kumar Dutta   : EOM-CC, STEOM-CC                              
  Nicolas Foglia         : Exact transition moments, OPA infrastructure, MCD improvements    
  Dmitry Ganyushin       : Spin-Orbit,Spin-Spin,Magnetic field MRCI      
  Miquel Garcia-Rates    : C-PCM and meta-GGA Hessian, CCSD/C-PCM, Gaussian charge scheme 
  Tiago L. C. Gouveia    : GS-ROHF, GS-ROCIS                             
  Yang Guo               : DLPNO-NEVPT2, F12-NEVPT2, CIM, IAO-localization        
  Andreas Hansen         : Spin unrestricted coupled pair/coupled cluster methods 
  Ingolf Harden          : AUTO-CI MPn and infrastructure                
  Benjamin Helmich-Paris : MC-RPA, TRAH-(SCF,CASSCF), AVAS, COSX integrals, SCF dyn. polar. 
  Lee Huntington         : MR-EOM, pCC                                   
  Robert Izsak           : Overlap fitted RIJCOSX, COSX-SCS-MP3, EOM     
  Riya Kayal             : Wick's Theorem for AUTO-CI, AUTO-CI UHF-CCSDT 
  Emily Kempfer          : AUTO-CI, RHF CISDT and CCSDT                  
  Christian Kollmar      : KDIIS, OOCD, Brueckner-CCSD(T), CCSD density, CASPT2, CASPT2-K, improved NEVPT2 
  Axel Koslowski         : Symmetry handling                             
  Simone Kossmann        : meta-GGA functionals, TD-DFT gradient, OOMP2, (MP2 Hessian; deprecated post 5.0) 
  Lucas Lang             : DCDCAS                                        
  Marvin Lechner         : AUTO-CI (C++ implementation), FIC-MRCC        
  Spencer Leger          : CASSCF response                               
  Dagmar Lenk            : GEPOL surface, SMD, ORCA-2-JSON               
  Dimitrios Liakos       : Extrapolation schemes; Compound Job, initial MDCI parallelization 
  Dimitrios Manganas     : Further ROCIS development; embedding schemes. LFT, Crystal Embedding 
  Dimitrios Pantazis     : SARC Basis sets                               
  Anastasios Papadopoulos: AUTO-CI, single reference methods and gradients 
  Taras Petrenko         : pre 6.0 DFT Hessian and TD-DFT gradient, (ASA, deprecated), ECA, 1-Electron XAS/XES, NRVS 
  Peter Pinski           : DLPNO-MP2, DLPNO-MP2 Gradient                 
  Christoph Reimann      : Effective Core Potentials                     
  Marius Retegan         : Local ZFS, SOC                                
  Christoph Riplinger    : Optimizer, TS searches, QM/MM, DLPNO-CCSD(T), (RO)-DLPNO pert. Triples 
  Michael Roemelt        : Original ROCIS implementation                 
  Masaaki Saitow         : Open-shell DLPNO-CCSD energy and density      
  Barbara Sandhoefer     : DKH picture change effects                    
  Kantharuban Sivalingam : CASSCF convergence/infrastructure, NEVPT2 and variants, FIC-MRCI 
  Bernardo de Souza      : ESD, SOC TD-DFT                               
  Georgi L. Stoychev     : AutoAux, RI-MP2 NMR, DLPNO-MP2 response, X2C  
  Van Anh Tran           : RI-MP2 g-tensors                              
  Willem Van den Heuvel  : Paramagnetic NMR                              
  Zikuan Wang            : NOTCH, Electric field optimization            
  Frank Wennmohs         : Technical directorship and infrastructure     
  Hang Xu                : AUTO-CI-Response properties                   
                                                                         
[FACCTs GmbH]                                                            
  Markus Bursch, Miquel Garcia-Rates, Christoph Riplinger, Bernardo de Souza, Georgi L. Stoychev 
                                                                 
  APM, Basis sets (HGBS, AHGBS, def-TZVP (Ac-Lr), def2-XVPD (La-Lu)), CI-OPT, improved COSX, DLPNO-Multilevel,           
  DOCKER, DRACO, updates on ESD, GOAT, IRC, LR-CPCM, MBIS, meta-GGA TD-DFT gradient, ML-optimized integration grids, 
  MM, NACMEs, nearIR, NEB, NEB-TS, NL-DFT gradient (VV10), 2- and 3-layer-ONIOM, interface openCOSMO-RS, QMMM,   
  Crystal-QMMM, SF, symmetry and pop. for TD-DFT, r2SCAN hybrids, SOLVATOR                                   
                                                                         
[Other institutions]                                                     
  V. Asgeirsson          : NEB                                           
  Christoph Bannwarth    : sTDA-DFT, sTD-DFT, PBEh-3c, B97-3c, D3        
  Sebastian Ehlert       : rSCAN, r2SCAN, r2SCAN-3c, D4, dhf basis sets  
  Marvin Friede          : D4 for Fr, Ra, Ac-Lr                          
  Lars Goerigk           : TD-DFT with DH, B97 family of functionals     
  Stefan Grimme          : VdW corrections, initial TS optimization, DFT functionals, gCP, sTDA/sTD-DF 
  Waldemar Hujo          : DFT-NL                                        
  H. Jonsson             : NEB                                           
  Holger Kruse           : gCP                                           
  Marcel Mueller         : wB97X-3c, vDZP basis set                      
  Hagen Neugebauer       : wr2SCAN                                       
  Tobias Risthaus        : range-separated hybrid DFT                    
  Lukas Wittmann         : regularized MP2, r2SCAN double-hybrids, wr2SCAN        
                                                                         
We gratefully acknowledge several colleagues who have allowed us to      
interface, adapt or use parts of their codes:                            
  Ed Valeev, F. Pavosevic, A. Kumar             : LibInt (2-el integral package), F12 methods 
  Garnet Chan, S. Sharma, J. Yang, R. Olivares  : DMRG                   
  Ulf Ekstrom                                   : XCFun DFT Library      
  Mihaly Kallay                                 : mrcc  (arbitrary order and MRCC methods)
  Frank Weinhold                                : gennbo (NPA and NBO analysis)           
  Simon Mueller                                 : openCOSMO-RS                            
  Christopher J. Cramer and Donald G. Truhlar   : smd solvation model                     
  S Lehtola, MJT Oliveira, MAL Marques          : LibXC Library                           
  Liviu Ungur et al                             : ANISO software                          


 Your calculation uses the libint2 library for the computation of 2-el integrals
 For citations please refer to: http://libint.valeyev.net

 Your ORCA version has been built with support for libXC version: 6.2.2
 For citations please refer to: https://libxc.gitlab.io

 This ORCA versions uses:
   CBLAS   interface :  Fast vector & matrix operations
   LAPACKE interface :  Fast linear algebra routines
   SCALAPACK package :  Parallel linear algebra routines
   Shared memory     :  Shared parallel matrices
   BLAS/LAPACK       :  OpenBLAS 0.3.27  USE64BITINT DYNAMIC_ARCH NO_AFFINITY Haswell SINGLE_THREADED
        Core in use  :  Haswell
   Copyright (c) 2011-2014, The OpenBLAS Project


NOTE: MaxCore=2000 MB was set to SCF,MP2,MDCI,CIPSI,MRCI and CIS
      => If you want to overwrite this, your respective input block should be placed after the MaxCore statement
Your calculation utilizes the atom-pairwise dispersion correction
based on EEQ partial charges (D4)


================================================================================

----- Orbital basis set information -----
Your calculation utilizes the basis: def2-QZVPPD
   F. Weigend and R. Ahlrichs, Phys. Chem. Chem. Phys. 7, 3297 (2005).
   D. Rappoport and F. Furche, J. Chem. Phys. 133, 134105 (2010)
   D. Rappoport, J. Chem. Phys. 155, 124102 (2021).

----- AuxJ basis set information -----
Your calculation utilizes the auxiliary basis: def2/J
   F. Weigend, Phys. Chem. Chem. Phys. 8, 1057 (2006).

----- AuxC basis set information -----
Your calculation utilizes the auxiliary basis: def2-QZVPPD/C
   A. Hellweg, C. Hattig, S. Hofener and W. Klopper, Theor. Chem. Acc. 117, 587 (2007).
  A. Hellweg and D. Rappoport; Phys. Chem. Chem. Phys. 17, 1010 (2015).

================================================================================
                                        WARNINGS
                       Please study these warnings very carefully!
================================================================================


WARNING: No MP2 level density has been requested!
         To calculate MP2 level properties use
         %mp2 Density relaxed end
         or
         %mp2 Density unrelaxed end
         Otherwise for double-hybrid DFT only the energy is correct!

WARNING: The frozen-core approximation is turned on by default for 
         the MP2 part of double-hybrid DFT.

================================================================================
                                       INPUT FILE
================================================================================
NAME = bh-pg_cplx.inp
|  1> # ------------------------------------
|  2> # bH_POPG (complex); ion pair-pi
|  3> # ------------------------------------
|  4> ! SP revDSD-PBEP86-D4/2021 def2-QZVPPD RIJCOSX def2/J TightSCF CPCM
|  5> %basis
|  6>   basis   "def2-QZVPPD"
|  7>   aux     "def2/J"           # RI-J (for SCF/RIJCOSX)
|  8>   auxC    "def2-QZVPPD/C"    # required for RI-MP2 (AuxC)
|  9> end
| 10> %pal
| 11>     nprocs 10
| 12> end
| 13> %MaxCore 2000
| 14> %cpcm 
| 15>    epsilon 3.0 
| 16> end
| 17> *xyz 0 1
| 18> # POPG1
| 19> C      1.20000     -1.81000      -4.27400
| 20> C      4.37700     -5.09000      -2.19600
| 21> O      2.45600     -2.41300      -4.07300
| 22> O      3.82400     -1.91400      -1.94100
| 23> O      1.71700     -3.37400      -1.78500
| 24> O      3.78400     -4.20100      -3.11300
| 25> P      2.91700     -2.92000      -2.61200
| 26> H      1.08800     -1.54300      -5.32500
| 27> H      1.12600     -0.91100      -3.66100
| 28> H      0.41200     -2.50800      -3.99000
| 29> H      4.90800     -5.87200      -2.73900
| 30> H      5.07900     -4.54500      -1.56500
| 31> H      3.60300     -5.54000      -1.57400
| 32> # Dab2
| 33> C      2.89500     -3.89300       3.17500
| 34> C      2.40400     -4.20600       1.76600
| 35> H      1.30500     -4.18800       1.71900
| 36> H      2.72000     -5.21200       1.46000
| 37> N      2.91700     -3.25700       0.75500
| 38> H      2.90500     -2.29100       1.13600
| 39> H      3.90100     -3.46200       0.48000
| 40> H      2.36700     -3.30000      -0.13600
| 41> H      3.98400     -3.91700       3.19500
| 42> H      2.50200     -4.63600       3.86900
| 43> H      2.54700     -2.90200       3.46900
| 44> # His3
| 45> C     -0.09100      0.94200       2.50500
| 46> N      1.25100      0.93200       0.37600
| 47> N      0.78100     -1.05700      -0.46400
| 48> H      0.88600     -1.89600      -1.05200
| 49> C      0.33400      0.30900       1.18500
| 50> C      1.50400      0.08300      -0.59600
| 51> H      2.19700      0.23600      -1.42600
| 52> C      0.02800     -0.93200       0.67500
| 53> H     -0.65000     -1.71300       1.01500
| 54> H     -0.82100      0.30000       2.99800
| 55> H      0.78100      1.06200       3.14800
| 56> H     -0.53700      1.91800       2.31200
| 57> *
| 58> 
| 59> 
| 60> 
| 61>                          ****END OF INPUT****
================================================================================

                       ****************************
                       * Single Point Calculation *
                       ****************************

---------------------------------
CARTESIAN COORDINATES (ANGSTROEM)
---------------------------------
  C      1.200000   -1.810000   -4.274000
  C      4.377000   -5.090000   -2.196000
  O      2.456000   -2.413000   -4.073000
  O      3.824000   -1.914000   -1.941000
  O      1.717000   -3.374000   -1.785000
  O      3.784000   -4.201000   -3.113000
  P      2.917000   -2.920000   -2.612000
  H      1.088000   -1.543000   -5.325000
  H      1.126000   -0.911000   -3.661000
  H      0.412000   -2.508000   -3.990000
  H      4.908000   -5.872000   -2.739000
  H      5.079000   -4.545000   -1.565000
  H      3.603000   -5.540000   -1.574000
  C      2.895000   -3.893000    3.175000
  C      2.404000   -4.206000    1.766000
  H      1.305000   -4.188000    1.719000
  H      2.720000   -5.212000    1.460000
  N      2.917000   -3.257000    0.755000
  H      2.905000   -2.291000    1.136000
  H      3.901000   -3.462000    0.480000
  H      2.367000   -3.300000   -0.136000
  H      3.984000   -3.917000    3.195000
  H      2.502000   -4.636000    3.869000
  H      2.547000   -2.902000    3.469000
  C     -0.091000    0.942000    2.505000
  N      1.251000    0.932000    0.376000
  N      0.781000   -1.057000   -0.464000
  H      0.886000   -1.896000   -1.052000
  C      0.334000    0.309000    1.185000
  C      1.504000    0.083000   -0.596000
  H      2.197000    0.236000   -1.426000
  C      0.028000   -0.932000    0.675000
  H     -0.650000   -1.713000    1.015000
  H     -0.821000    0.300000    2.998000
  H      0.781000    1.062000    3.148000
  H     -0.537000    1.918000    2.312000

----------------------------
CARTESIAN COORDINATES (A.U.)
----------------------------
  NO LB      ZA    FRAG     MASS         X           Y           Z
   0 C     6.0000    0    12.011    2.267671   -3.420404   -8.076689
   1 C     6.0000    0    12.011    8.271331   -9.618706   -4.149839
   2 O     8.0000    0    15.999    4.641167   -4.559909   -7.696855
   3 O     8.0000    0    15.999    7.226313   -3.616936   -3.667958
   4 O     8.0000    0    15.999    3.244660   -6.375936   -3.373161
   5 O     8.0000    0    15.999    7.150724   -7.938739   -5.882717
   6 P    15.0000    0    30.974    5.512331   -5.518000   -4.935965
   7 H     1.0000    0     1.008    2.056022   -2.915847  -10.062792
   8 H     1.0000    0     1.008    2.127832   -1.721541   -6.918287
   9 H     1.0000    0     1.008    0.778567   -4.739433   -7.540007
  10 H     1.0000    0     1.008    9.274776  -11.096472   -5.175960
  11 H     1.0000    0     1.008    9.597919   -8.588805   -2.957421
  12 H     1.0000    0     1.008    6.808683  -10.469083   -2.974429
  13 C     6.0000    0    12.011    5.470757   -7.356704    5.999880
  14 C     6.0000    0    12.011    4.542902   -7.948188    3.337256
  15 H     1.0000    0     1.008    2.466093   -7.914173    3.248439
  16 H     1.0000    0     1.008    5.140055   -9.849253    2.759000
  17 N     7.0000    0    14.007    5.512331   -6.154838    1.426743
  18 H     1.0000    0     1.008    5.489654   -4.329363    2.146729
  19 H     1.0000    0     1.008    7.371822   -6.542232    0.907069
  20 H     1.0000    0     1.008    4.472982   -6.236096   -0.257003
  21 H     1.0000    0     1.008    7.528669   -7.402057    6.037675
  22 H     1.0000    0     1.008    4.728095   -8.760770    7.311350
  23 H     1.0000    0     1.008    4.813132   -5.483985    6.555460
  24 C     6.0000    0    12.011   -0.171965    1.780122    4.733764
  25 N     7.0000    0    14.007    2.364047    1.761225    0.710537
  26 N     7.0000    0    14.007    1.475876   -1.997441   -0.876833
  27 H     1.0000    0     1.008    1.674297   -3.582921   -1.987992
  28 C     6.0000    0    12.011    0.631169    0.583925    2.239325
  29 C     6.0000    0    12.011    2.842148    0.156847   -1.126277
  30 H     1.0000    0     1.008    4.151728    0.445975   -2.694749
  31 C     6.0000    0    12.011    0.052912   -1.761225    1.275565
  32 H     1.0000    0     1.008   -1.228322   -3.237101    1.918072
  33 H     1.0000    0     1.008   -1.551465    0.566918    5.665399
  34 H     1.0000    0     1.008    1.475876    2.006889    5.948858
  35 H     1.0000    0     1.008   -1.014783    3.624495    4.369047

--------------------------------
INTERNAL COORDINATES (ANGSTROEM)
--------------------------------
 C      0   0   0     0.000000000000     0.00000000     0.00000000
 C      1   0   0     5.016952561067     0.00000000     0.00000000
 O      1   2   0     1.407673967934    25.28123889     0.00000000
 O      3   1   2     2.581830552147   120.52301864   284.47651044
 O      4   3   1     2.568148165508    60.36788558    72.21390298
 O      2   1   3     1.408140262900    18.34845888   332.34394895
 P      4   3   1     1.511597168560    35.59839551   101.42144077
 H      1   2   6     1.090153200243   128.64573047    18.64259107
 H      1   2   6     1.090617256420   110.43090424   239.80273094
 H      1   2   6     1.090322887956    86.05731466   130.55029693
 H      2   1   3     1.090107334165   124.82999911   296.12324982
 H      2   1   3     1.089949540116   108.70761060    67.75635470
 H      2   1   3     1.090165125107    93.24420546   179.57822580
 C     13   2   1     5.076108154876   119.92616569   266.10211733
 C     14  13   2     1.524575678673    27.58444170   124.66736505
 H     15  14  13     1.100151807707   110.96780715   167.31465046
 H     15  14  13     1.097965391076   110.67012264    48.81301268
 N     15  14  13     1.478475904437   112.85791985   288.52756120
 H     18  15  14     1.038489768847   110.01014250   319.58627088
 H     18  15  14     1.042068135968   112.44696129    78.61274685
 H     18  15  14     1.047964694062   111.89761883   196.83578131
 H     14  13   2     1.089448025378    82.56551879   316.71333112
 H     14  13   2     1.090015596219   115.13680205   208.62412100
 H     14  13   2     1.090697483265   126.26260366    65.49827579
 C     19  18  15     4.615459457086   140.16553054   293.62445455
 N     25  19  18     2.516685320019    53.14139994   254.10184755
 N     26  25  19     2.209665359280   102.22451948    52.30044610
 H     27  26  25     1.029898053207   158.22427676   198.43907132
 C     26  25  19     1.372406280953    31.44285129    58.00128748
 C     26  25  19     1.315140296698   136.91817041    49.05083415
 H     30  26  25     1.092043039445   126.39652281   185.34582786
 C     27  26  25     1.371114510170    73.67757865     3.22789191
 H     32  27  26     1.088689579265   122.41503301   179.49592061
 H     25  19  18     1.090005963286    98.99317660    38.63348726
 H     25  19  18     1.090061007467    74.50267853   146.50076875
 H     25  19  18     1.090293997049   147.14751731   248.49595554

---------------------------
INTERNAL COORDINATES (A.U.)
---------------------------
 C      0   0   0     0.000000000000     0.00000000     0.00000000
 C      1   0   0     9.480666367292     0.00000000     0.00000000
 O      1   2   0     2.660118285246    25.28123889     0.00000000
 O      3   1   2     4.878952667749   120.52301864   284.47651044
 O      4   3   1     4.853096704142    60.36788558    72.21390298
 O      2   1   3     2.660999455029    18.34845888   332.34394895
 P      4   3   1     2.856504673390    35.59839551   101.42144077
 H      1   2   6     2.060090992477   128.64573047    18.64259107
 H      1   2   6     2.060967931561   110.43090424   239.80273094
 H      1   2   6     2.060411655782    86.05731466   130.55029693
 H      2   1   3     2.060004318151   124.82999911   296.12324982
 H      2   1   3     2.059706130613   108.70761060    67.75635470
 H      2   1   3     2.060113527205    93.24420546   179.57822580
 C     13   2   1     9.592454238880   119.92616569   266.10211733
 C     14  13   2     2.881030503128    27.58444170   124.66736505
 H     15  14  13     2.078985622304   110.96780715   167.31465046
 H     15  14  13     2.074853893657   110.67012264    48.81301268
 N     15  14  13     2.793914554987   112.85791985   288.52756120
 H     18  15  14     1.962461256000   110.01014250   319.58627088
 H     18  15  14     1.969223389865   112.44696129    78.61274685
 H     18  15  14     1.980366269795   111.89761883   196.83578131
 H     14  13   2     2.058758405106    82.56551879   316.71333112
 H     14  13   2     2.059830958556   115.13680205   208.62412100
 H     14  13   2     2.061119538327   126.26260366    65.49827579
 C     19  18  15     8.721954356108   140.16553054   293.62445455
 N     25  19  18     4.755846020096    53.14139994   254.10184755
 N     26  25  19     4.175662376651   102.22451948    52.30044610
 H     27  26  25     1.946225266420   158.22427676   198.43907132
 C     26  25  19     2.593472015475    31.44285129    58.00128748
 C     26  25  19     2.485254988444   136.91817041    49.05083415
 H     30  26  25     2.063662271006   126.39652281   185.34582786
 C     27  26  25     2.591030922468    73.67757865     3.22789191
 H     32  27  26     2.057325149665   122.41503301   179.49592061
 H     25  19  18     2.059812754952    98.99317660    38.63348726
 H     25  19  18     2.059916773379    74.50267853   146.50076875
 H     25  19  18     2.060357059880   147.14751731   248.49595554

---------------------
BASIS SET INFORMATION
---------------------
There are 5 groups of distinct atoms

 Group   1 Type C   : 16s8p4d2f1g contracted to 8s4p4d2f1g pattern {82111111/5111/1111/11/1}
 Group   2 Type O   : 16s9p4d2f1g contracted to 8s5p4d2f1g pattern {82111111/51111/1111/11/1}
 Group   3 Type P   : 21s14p5d2f1g contracted to 10s6p5d2f1g pattern {10311111111/821111/11111/11/1}
 Group   4 Type H   : 7s4p2d1f contracted to 4s4p2d1f pattern {4111/1111/11/1}
 Group   5 Type N   : 16s8p4d2f1g contracted to 8s4p4d2f1g pattern {82111111/5111/1111/11/1}

Atom   0C    basis set group =>   1
Atom   1C    basis set group =>   1
Atom   2O    basis set group =>   2
Atom   3O    basis set group =>   2
Atom   4O    basis set group =>   2
Atom   5O    basis set group =>   2
Atom   6P    basis set group =>   3
Atom   7H    basis set group =>   4
Atom   8H    basis set group =>   4
Atom   9H    basis set group =>   4
Atom  10H    basis set group =>   4
Atom  11H    basis set group =>   4
Atom  12H    basis set group =>   4
Atom  13C    basis set group =>   1
Atom  14C    basis set group =>   1
Atom  15H    basis set group =>   4
Atom  16H    basis set group =>   4
Atom  17N    basis set group =>   5
Atom  18H    basis set group =>   4
Atom  19H    basis set group =>   4
Atom  20H    basis set group =>   4
Atom  21H    basis set group =>   4
Atom  22H    basis set group =>   4
Atom  23H    basis set group =>   4
Atom  24C    basis set group =>   1
Atom  25N    basis set group =>   5
Atom  26N    basis set group =>   5
Atom  27H    basis set group =>   4
Atom  28C    basis set group =>   1
Atom  29C    basis set group =>   1
Atom  30H    basis set group =>   4
Atom  31C    basis set group =>   1
Atom  32H    basis set group =>   4
Atom  33H    basis set group =>   4
Atom  34H    basis set group =>   4
Atom  35H    basis set group =>   4
---------------------------------
AUXILIARY/J BASIS SET INFORMATION
---------------------------------
There are 5 groups of distinct atoms

 Group   1 Type C   : 12s5p4d2f1g contracted to 6s4p3d1f1g pattern {711111/2111/211/2/1}
 Group   2 Type O   : 12s5p4d2f1g contracted to 6s4p3d1f1g pattern {711111/2111/211/2/1}
 Group   3 Type P   : 14s5p5d2f1g contracted to 8s4p3d1f1g pattern {71111111/2111/311/2/1}
 Group   4 Type H   : 5s2p1d contracted to 3s1p1d pattern {311/2/1}
 Group   5 Type N   : 12s5p4d2f1g contracted to 6s4p3d1f1g pattern {711111/2111/211/2/1}

Atom   0C    basis set group =>   1
Atom   1C    basis set group =>   1
Atom   2O    basis set group =>   2
Atom   3O    basis set group =>   2
Atom   4O    basis set group =>   2
Atom   5O    basis set group =>   2
Atom   6P    basis set group =>   3
Atom   7H    basis set group =>   4
Atom   8H    basis set group =>   4
Atom   9H    basis set group =>   4
Atom  10H    basis set group =>   4
Atom  11H    basis set group =>   4
Atom  12H    basis set group =>   4
Atom  13C    basis set group =>   1
Atom  14C    basis set group =>   1
Atom  15H    basis set group =>   4
Atom  16H    basis set group =>   4
Atom  17N    basis set group =>   5
Atom  18H    basis set group =>   4
Atom  19H    basis set group =>   4
Atom  20H    basis set group =>   4
Atom  21H    basis set group =>   4
Atom  22H    basis set group =>   4
Atom  23H    basis set group =>   4
Atom  24C    basis set group =>   1
Atom  25N    basis set group =>   5
Atom  26N    basis set group =>   5
Atom  27H    basis set group =>   4
Atom  28C    basis set group =>   1
Atom  29C    basis set group =>   1
Atom  30H    basis set group =>   4
Atom  31C    basis set group =>   1
Atom  32H    basis set group =>   4
Atom  33H    basis set group =>   4
Atom  34H    basis set group =>   4
Atom  35H    basis set group =>   4
---------------------------------
AUXILIARY/C BASIS SET INFORMATION
---------------------------------
There are 5 groups of distinct atoms

 Group   1 Type C   : 10s9p8d6f3g1h contracted to 10s9p8d6f3g1h pattern {1111111111/111111111/11111111/111111/111/1}
 Group   2 Type O   : 10s9p8d6f3g1h contracted to 10s9p8d6f3g1h pattern {1111111111/111111111/11111111/111111/111/1}
 Group   3 Type P   : 13s11p10d7f3g1h contracted to 13s11p10d7f3g1h pattern {1111111111111/11111111111/1111111111/1111111/111/1}
 Group   4 Type H   : 7s5p4d2f1g contracted to 7s5p4d2f1g pattern {1111111/11111/1111/11/1}
 Group   5 Type N   : 10s9p8d6f3g1h contracted to 10s9p8d6f3g1h pattern {1111111111/111111111/11111111/111111/111/1}

Atom   0C    basis set group =>   1
Atom   1C    basis set group =>   1
Atom   2O    basis set group =>   2
Atom   3O    basis set group =>   2
Atom   4O    basis set group =>   2
Atom   5O    basis set group =>   2
Atom   6P    basis set group =>   3
Atom   7H    basis set group =>   4
Atom   8H    basis set group =>   4
Atom   9H    basis set group =>   4
Atom  10H    basis set group =>   4
Atom  11H    basis set group =>   4
Atom  12H    basis set group =>   4
Atom  13C    basis set group =>   1
Atom  14C    basis set group =>   1
Atom  15H    basis set group =>   4
Atom  16H    basis set group =>   4
Atom  17N    basis set group =>   5
Atom  18H    basis set group =>   4
Atom  19H    basis set group =>   4
Atom  20H    basis set group =>   4
Atom  21H    basis set group =>   4
Atom  22H    basis set group =>   4
Atom  23H    basis set group =>   4
Atom  24C    basis set group =>   1
Atom  25N    basis set group =>   5
Atom  26N    basis set group =>   5
Atom  27H    basis set group =>   4
Atom  28C    basis set group =>   1
Atom  29C    basis set group =>   1
Atom  30H    basis set group =>   4
Atom  31C    basis set group =>   1
Atom  32H    basis set group =>   4
Atom  33H    basis set group =>   4
Atom  34H    basis set group =>   4
Atom  35H    basis set group =>   4


           ************************************************************
           *        Program running with 10 parallel MPI-processes    *
           *              working on a common directory               *
           ************************************************************
------------------------------------------------------------------------------
                             ORCA STARTUP CALCULATIONS
                           -- RI-GTO INTEGRALS CHOSEN --
------------------------------------------------------------------------------
------------------------------------------------------------------------------
                   ___                                                        
                  /   \      - P O W E R E D   B Y -                         
                 /     \                                                     
                 |  |  |   _    _      __       _____    __    __             
                 |  |  |  | |  | |    /  \     |  _  \  |  |  /  |          
                  \  \/   | |  | |   /    \    | | | |  |  | /  /          
                 / \  \   | |__| |  /  /\  \   | |_| |  |  |/  /          
                |  |  |   |  __  | /  /__\  \  |    /   |      \           
                |  |  |   | |  | | |   __   |  |    \   |  |\   \          
                \     /   | |  | | |  |  |  |  | |\  \  |  | \   \       
                 \___/    |_|  |_| |__|  |__|  |_| \__\ |__|  \__/        
                                                                              
                      - O R C A' S   B I G   F R I E N D -                    
                                      &                                       
                       - I N T E G R A L  F E E D E R -                       
                                                                              
 v1 FN, 2020, v2 2021, v3 2022-2024                                           
------------------------------------------------------------------------------


----------------------
SHARK INTEGRAL PACKAGE
----------------------

Number of atoms                             ...     36
Number of basis functions                   ...   1693
Number of shells                            ...    533
Maximum angular momentum                    ...      4
Integral batch strategy                     ... SHARK/LIBINT Hybrid
RI-J (if used) integral strategy            ... SPLIT-RIJ (Revised 2003 algorithm where possible)
Printlevel                                  ...      1
Contraction scheme used                     ... SEGMENTED contraction
Prescreening option                         ... SCHWARTZ
   Thresh                                   ... 2.500e-11
   Tcut                                     ... 2.500e-12
   Tpresel                                  ... 2.500e-12 
Coulomb Range Separation                    ... NOT USED
Exchange Range Separation                   ... NOT USED
Multipole approximations                    ... NOT USED
Finite Nucleus Model                        ... NOT USED
CABS basis                                  ... NOT available
Auxiliary Coulomb fitting basis             ... AVAILABLE
   # of basis functions in Aux-J            ...   1006
   # of shells in Aux-J                     ...    342
   Maximum angular momentum in Aux-J        ...      4
Auxiliary J/K fitting basis                 ... NOT available
Auxiliary Correlation fitting basis         ... AVAILABLE
   # of basis functions in Aux-C            ...   3838
   # of shells in Aux-C                     ...    980
   Maximum angular momentum in Aux-C        ...      5
Auxiliary 'external' fitting basis          ... NOT available

Checking pre-screening integrals            ... done (  0.0 sec) Dimension = 533
Check shell pair data                       ... done (  0.0 sec)
Shell pair information
Shell pair cut-off parameter TPreSel        ...   2.5e-12
Total number of shell pairs                 ...    142311
Shell pairs after pre-screening             ...     98730
Total number of primitive shell pairs       ...    314810
Primitive shell pairs kept                  ...    161664
          la=0 lb=0:  15035 shell pairs
          la=1 lb=0:  23313 shell pairs
          la=1 lb=1:   9049 shell pairs
          la=2 lb=0:  14925 shell pairs
          la=2 lb=1:  11732 shell pairs
          la=2 lb=2:   3785 shell pairs
          la=3 lb=0:   6444 shell pairs
          la=3 lb=1:   5327 shell pairs
          la=3 lb=2:   3253 shell pairs
          la=3 lb=3:    690 shell pairs
          la=4 lb=0:   2012 shell pairs
          la=4 lb=1:   1662 shell pairs
          la=4 lb=2:   1014 shell pairs
          la=4 lb=3:    413 shell pairs
          la=4 lb=4:     76 shell pairs

Calculating one electron integrals          ... done (  0.2 sec)
Calculating RI/J V-Matrix + Cholesky decomp.... done (  0.0 sec)
Calculating RI/C V-Matrix + Cholesky decomp.... done (  0.6 sec)
Calculating Nuclear repulsion               ... done (  0.0 sec) ENN=   1379.137919866005 Eh

Diagonalization of the overlap matrix:
Smallest eigenvalue                        ... 1.466e-07
Time for diagonalization                   ...    0.407 sec
Threshold for overlap eigenvalues          ... 1.000e-07
Number of eigenvalues below threshold      ... 0

IMPORTANT:
Smallest eigenvalue of S below the DiffSThresh (1.000e-06) while
Thresh>1e-12 and/or TCut>1e-13! In order to avoid SCF convergence issues,
Thresh will be set to at least 1e-12 and TCut to at least 1e-13.
This can be turned off by adding %SCF DiffSThresh -1 END to the input.

Time for construction of square roots      ...    0.230 sec
Total time needed                          ...    0.658 sec

-------------------
DFT GRID GENERATION
-------------------

General Integration Accuracy     IntAcc      ... 4.388
Radial Grid Type                 RadialGrid  ... OptM3 with GC (2021)
Angular Grid (max. ang.)         AngularGrid ... 4 (Lebedev-302)
Angular grid pruning method      GridPruning ... 4 (adaptive)
Weight generation scheme         WeightScheme... mBecke (2022)
Basis function cutoff            BFCut       ... 1.0000e-11
Integration weight cutoff        WCut        ... 1.0000e-14
Partially contracted basis set               ... off
Rotationally invariant grid construction     ... off
Angular grids for H and He will be reduced by one unit
Diffuse basis detected: some atoms will have their outermost
                        angular grid increased by 1.

Total number of grid points                  ...   168871
Total number of batches                      ...     2655
Average number of points per batch           ...       63
Average number of grid points per atom       ...     4691

--------------------
COSX GRID GENERATION
--------------------

GRIDX 1
-------
General Integration Accuracy     IntAcc      ... 3.816
Radial Grid Type                 RadialGrid  ... OptM3 with GC (2021)
Angular Grid (max. ang.)         AngularGrid ... 1 (Lebedev-50)
Angular grid pruning method      GridPruning ... 4 (adaptive)
Weight generation scheme         WeightScheme... mBecke (2022)
Basis function cutoff            BFCut       ... 1.0000e-11
Integration weight cutoff        WCut        ... 1.0000e-14
Partially contracted basis set               ... on
Rotationally invariant grid construction     ... off
Angular grids for H and He will be reduced by one unit
Diffuse basis detected: some atoms will have their outermost
                        angular grid increased by 1.

Total number of grid points                  ...    22056
Total number of batches                      ...      192
Average number of points per batch           ...      114
Average number of grid points per atom       ...      613
UseSFitting                                  ... on

GRIDX 2
-------
General Integration Accuracy     IntAcc      ... 4.020
Radial Grid Type                 RadialGrid  ... OptM3 with GC (2021)
Angular Grid (max. ang.)         AngularGrid ... 2 (Lebedev-110)
Angular grid pruning method      GridPruning ... 4 (adaptive)
Weight generation scheme         WeightScheme... mBecke (2022)
Basis function cutoff            BFCut       ... 1.0000e-11
Integration weight cutoff        WCut        ... 1.0000e-14
Partially contracted basis set               ... on
Rotationally invariant grid construction     ... off
Angular grids for H and He will be reduced by one unit
Diffuse basis detected: some atoms will have their outermost
                        angular grid increased by 1.

Total number of grid points                  ...    48958
Total number of batches                      ...      402
Average number of points per batch           ...      121
Average number of grid points per atom       ...     1360
UseSFitting                                  ... on

GRIDX 3
-------
General Integration Accuracy     IntAcc      ... 4.338
Radial Grid Type                 RadialGrid  ... OptM3 with GC (2021)
Angular Grid (max. ang.)         AngularGrid ... 3 (Lebedev-194)
Angular grid pruning method      GridPruning ... 4 (adaptive)
Weight generation scheme         WeightScheme... mBecke (2022)
Basis function cutoff            BFCut       ... 1.0000e-11
Integration weight cutoff        WCut        ... 1.0000e-14
Partially contracted basis set               ... on
Rotationally invariant grid construction     ... off
Angular grids for H and He will be reduced by one unit
Diffuse basis detected: some atoms will have their outermost
                        angular grid increased by 1.

Total number of grid points                  ...   109083
Total number of batches                      ...      872
Average number of points per batch           ...      125
Average number of grid points per atom       ...     3030
UseSFitting                                  ... on
Initializing property integral containers    ... done (  0.0 sec)

SHARK setup successfully completed in   8.9 seconds

Maximum memory used throughout the entire STARTUP-calculation: 233.2 MB


           ************************************************************
           *        Program running with 10 parallel MPI-processes    *
           *              working on a common directory               *
           ************************************************************
-------------------------------------------------------------------------------
                                 ORCA GUESS
                   Start orbitals & Density for SCF / CASSCF
-------------------------------------------------------------------------------

------------
SCF SETTINGS
------------
Hamiltonian:
 Density Functional     Method          .... DFT(GTOs)
 Exchange Functional    Exchange        .... PBE
   PBE kappa parameter   XKappa         ....  0.804000
   PBE mue parameter    XMuePBE         ....  0.219520
 Correlation Functional Correlation     .... P86
 LDA part of GGA corr.  LDAOpt          .... VWN-5
 Gradients option       PostSCFGGA      .... off
 Hybrid DFT is turned on
   Fraction HF Exchange ScalHFX         ....  0.690000
   Scaling of DF-GGA-X  ScalDFX         ....  0.310000
   Scaling of DF-GGA-C  ScalDFC         ....  0.422400
   Scaling of DF-LDA-C  ScalLDAC        ....  0.422400
   Perturbative correction              ....  1.000000
 RI-approximation to the Coulomb term is turned on
   Number of AuxJ basis functions       .... 1006
   RIJ-COSX (HFX calculated with COS-X)).... on


General Settings:
 Integral files         IntName         .... bh-pg_cplx
 Hartree-Fock type      HFTyp           .... RHF
 Total Charge           Charge          ....    0
 Multiplicity           Mult            ....    1
 Number of Electrons    NEL             ....  136
 Basis Dimension        Dim             .... 1693
 Nuclear Repulsion      ENuc            ....   1379.1379198660 Eh

Convergence Acceleration:
 AO-DIIS                CNVDIIS         .... on
   Start iteration      DIISMaxIt       ....    12
   Startup error        DIISStart       ....  0.200000
   # of expansion vecs  DIISMaxEq       ....     5
   Bias factor          DIISBfac        ....   1.050
   Max. coefficient     DIISMaxC        ....  10.000
 MO-DIIS                CNVKDIIS        .... off
 Trust-Rad. Augm. Hess. CNVTRAH         .... auto
   Auto Start mean grad. ratio tolernc. ....  1.125000
   Auto Start start iteration           ....    50
   Auto Start num. interpolation iter.  ....    10
   Max. Number of Micro iterations      ....    24
   Max. Number of Macro iterations      .... Maxiter - #DIIS iter
   Number of Davidson start vectors     ....     2
   Converg. threshold    (grad. norm)   ....   1.000e-05
   Grad. Scal. Fac. for Micro threshold ....   0.100
   Minimum threshold for Micro iter.    ....   1.000e-02
   NR start threshold (gradient norm)   ....   1.000e-04
   Initial trust radius                 ....   0.400
   Minimum AH scaling param. (alpha)    ....   1.000
   Maximum AH scaling param. (alpha)    .... 1000.000
   Quad. conv. algorithm                .... NR
   White noise on init. David. guess    .... on
   Maximum white noise                  ....   0.010
   Pseudo random numbers                .... off
   Inactive MOs                         .... canonical
   Orbital update algorithm             .... Taylor
   Preconditioner                       .... Diag
   Full preconditioner red. dimension   ....   250
 SOSCF                  CNVSOSCF        .... on
   Start iteration      SOSCFMaxIt      ....   150
   Startup grad/error   SOSCFStart      ....  0.003300
   Hessian update       SOSCFHessUp     .... L-BFGS
 Level Shifting         CNVShift        .... on
   Level shift para.    LevelShift      ....    0.2500
   Turn off err/grad.   ShiftErr        ....    0.0010
 Zerner damping         CNVZerner       .... off
 Static damping         CNVDamp         .... on
   Fraction old density DampFac         ....    0.7000
   Max. Damping (<1)    DampMax         ....    0.9800
   Min. Damping (>=0)   DampMin         ....    0.0000
   Turn off err/grad.   DampErr         ....    0.1000

SCF Procedure:
 Maximum # iterations   MaxIter         ....   125
 SCF integral mode      SCFMode         .... Direct
   Integral package                     .... SHARK and LIBINT hybrid scheme
 Reset frequency        DirectResetFreq ....    20
 Integral Threshold     Thresh          ....  1.000e-12 Eh
 Primitive CutOff       TCut            ....  1.000e-13 Eh

Convergence Tolerance:
 Convergence Check Mode ConvCheckMode   .... Total+1el-Energy
 Convergence forced     ConvForced      .... 0
 Energy Change          TolE            ....  1.000e-08 Eh
 1-El. energy change                    ....  1.000e-05 Eh
 Orbital Gradient       TolG            ....  1.000e-05
 Orbital Rotation angle TolX            ....  1.000e-05
 DIIS Error             TolErr          ....  5.000e-07

------------------------------
INITIAL GUESS: MODEL POTENTIAL
------------------------------
Loading Hartree-Fock densities                     ... done
Calculating cut-offs                               ... done
Initializing the effective Hamiltonian             ... done
Setting up the integral package (SHARK)            ... done
Starting the Coulomb interaction                   ... done (   1.4 sec)
Making the grid                                    ... done (   0.3 sec)
Mapping shells                                     ... done
Starting the XC term evaluation                    ... done (   1.2 sec)
  promolecular density results
     # of electrons  =    135.985543033
     EX              =   -121.679088741
     EC              =      0.039552170
     EX+EC           =   -121.639536571
Transforming the Hamiltonian                       ... done (   0.2 sec)
Diagonalizing the Hamiltonian                      ... done (   0.5 sec)
Back transforming the eigenvectors                 ... done (   0.1 sec)
Now organizing SCF variables                       ... done
                      ------------------
                      INITIAL GUESS DONE (   4.0 sec)
                      ------------------
             **** ENERGY FILE WAS UPDATED (bh-pg_cplx.en.tmp) ****
Finished Guess after   5.4 sec
Maximum memory used throughout the entire GUESS-calculation: 224.0 MB


           ************************************************************
           *        Program running with 10 parallel MPI-processes    *
           *              working on a common directory               *
           ************************************************************

-------------------------------------------------------------------------------------------
                                      ORCA LEAN-SCF
                              memory conserving SCF solver
-------------------------------------------------------------------------------------------

--------------------
CPCM SOLVATION MODEL
--------------------
CPCM parameters:
  Epsilon                                         ...       3.0000
  Refrac                                          ...       1.3300
  Rsolv                                           ...       1.3000
  Surface type                                    ... GAUSSIAN VDW
  Discretization scheme                           ... Constant charge density
    Threshold for H atoms                         ...       5.0000 (charges/Ang^2)
    Threshold for non-H atoms                     ...       5.0000 (charges/Ang^2)
  Epsilon function type                           ...         CPCM
Solvent:                                          ... CUSTOM
Radii:
  Scheme                                          ... Element-dependent radii
  Radius for C  used is    3.8550 Bohr (=   2.0400 Ang.)
  Radius for O  used is    3.4469 Bohr (=   1.8240 Ang.)
  Radius for P  used is    4.0818 Bohr (=   2.1600 Ang.)
  Radius for H  used is    2.4944 Bohr (=   1.3200 Ang.)
  Radius for N  used is    3.5149 Bohr (=   1.8600 Ang.)
Calculating surface                               ...        done! (  0.0s)
Cavity surface points                             ...         3205
Cavity Volume                                     ...    2099.2051
Cavity Surface-area                               ...    1174.9063
Calculating surface distance matrix               ...        done! (  0.0s)
Performing Cholesky decomposition & store         ...        done! (  0.2s)
Overall time for CPCM initialization              ...                 0.2s

----------------------------------------D-I-I-S--------------------------------------------
Iteration    Energy (Eh)           Delta-E    RMSDP     MaxDP     DIISErr   Damp  Time(sec)
-------------------------------------------------------------------------------------------
               ***  Starting incremental Fock matrix formation  ***
    1    -1120.0615945971428573     0.00e+00  1.28e-02  7.91e+00  3.78e-01  0.700  42.1
    2    -1120.2938405316192529    -2.32e-01  1.43e-02  8.41e+00  1.92e-01  0.700  25.1
                               ***Turning on AO-DIIS***
    3    -1120.4121136777205265    -1.18e-01  1.35e-02  6.41e+00  8.05e-02  0.700  23.9
    4    -1120.4837014964862192    -7.16e-02  3.71e-02  1.64e+01  5.81e-02  0.000  23.2
    5    -1120.6406660960913086    -1.57e-01  3.03e-03  1.68e+00  9.08e-03  0.000  23.7
    6    -1120.6410032867418067    -3.37e-04  5.17e-04  1.82e-01  3.93e-03  0.000  22.1
                              *** Initializing SOSCF ***
---------------------------------------S-O-S-C-F--------------------------------------
Iteration    Energy (Eh)           Delta-E    RMSDP     MaxDP     MaxGrad    Time(sec)
--------------------------------------------------------------------------------------
    7    -1120.6410658993015659    -6.26e-05  3.40e-04  1.53e-01  1.07e-03    22.1
               *** Restarting incremental Fock matrix formation ***
    8    -1120.6410605286685040     5.37e-06  2.85e-02  1.41e+01  1.37e-04    42.2
    9    -1120.6410790504353372    -1.85e-05  1.83e-03  5.77e-01  5.44e-05    37.3
   10    -1120.6410798734166292    -8.23e-07  7.63e-04  2.41e-01  3.42e-05    33.4
   11    -1120.6410800013661628    -1.28e-07  3.62e-04  1.11e-01  7.57e-06    32.2
   12    -1120.6410799638636036     3.75e-08  7.74e-05  1.61e-02  3.87e-06    31.2
   13    -1120.6410799660309294    -2.17e-09  7.44e-05  2.34e-02  9.48e-07    28.9
                 **** Energy Check signals convergence ****

               *****************************************************
               *                     SUCCESS                       *
               *           SCF CONVERGED AFTER  13 CYCLES          *
               *****************************************************

Recomputing exchange energy using gridx3       ... done (   69.159 sec)
Old exchange energy                            :    -85.775376764 Eh
New exchange energy                            :    -85.775324077 Eh
Exchange energy change after final integration :      0.000052688 Eh
Total energy after final integration           :  -1120.641027278 Eh
             **** ENERGY FILE WAS UPDATED (bh-pg_cplx.en.tmp) ****

----------------
TOTAL SCF ENERGY
----------------

Total Energy       :      -1120.64102727826366 Eh          -30494.19265 eV

Components:
Nuclear Repulsion  :       1379.13791986600495 Eh           37528.25070 eV
Electronic Energy  :      -2499.73881736929616 Eh          -68021.35136 eV
One Electron Energy:      -4279.97213316014404 Eh         -116463.96266 eV
Two Electron Energy:       1780.23331579084766 Eh           48442.61130 eV
CPCM Dielectric    :         -0.04018246273917 Eh              -1.09342 eV

Virial components:
Potential Energy   :      -2238.52237763477569 Eh          -60913.29067 eV
Kinetic Energy     :       1117.88135035651180 Eh           30419.09802 eV
Virial Ratio       :          2.00246866710932

DFT components:
N(Alpha)           :       67.999986158072 electrons
N(Beta)            :       67.999986158072 electrons
N(Total)           :      135.999972316144 electrons
E(X)               :      -38.383339474765 Eh       
E(C)               :       -2.163778113556 Eh       
E(XC)              :      -40.547117588321 Eh       

CPCM Solvation Model Properties:
Surface-charge          :         -0.03311876857292
Corrected charge        :         -0.00000000000000
Outlying charge corr.   :          0.00004121740179 Eh               0.00112 eV
Free-energy (cav+disp)  :  This term is not implemented in the current solvation scheme

---------------
SCF CONVERGENCE
---------------

  Last Energy change         ...    2.1673e-09  Tolerance :   1.0000e-08
  Last MAX-Density change    ...    2.3367e-02  Tolerance :   1.0000e-07
  Last RMS-Density change    ...    7.4443e-05  Tolerance :   5.0000e-09
  Last DIIS Error            ...    1.0684e-03  Tolerance :   5.0000e-07
  Last Orbital Gradient      ...    9.4844e-07  Tolerance :   1.0000e-05
  Last Orbital Rotation      ...    1.9581e-06  Tolerance :   1.0000e-05


----------------
ORBITAL ENERGIES
----------------

  NO   OCC          E(Eh)            E(eV) 
   0   2.0000     -78.920921     -2147.5474 
   1   2.0000     -20.009010      -544.4728 
   2   2.0000     -20.008441      -544.4573 
   3   2.0000     -19.954753      -542.9964 
   4   2.0000     -19.929749      -542.3160 
   5   2.0000     -15.194463      -413.4624 
   6   2.0000     -15.113903      -411.2702 
   7   2.0000     -15.052577      -409.6014 
   8   2.0000     -10.889431      -296.3165 
   9   2.0000     -10.865771      -295.6727 
  10   2.0000     -10.863760      -295.6179 
  11   2.0000     -10.856589      -295.4228 
  12   2.0000     -10.834252      -294.8150 
  13   2.0000     -10.832701      -294.7728 
  14   2.0000     -10.832375      -294.7639 
  15   2.0000     -10.804847      -294.0148 
  16   2.0000      -7.200554      -195.9370 
  17   2.0000      -5.198569      -141.4603 
  18   2.0000      -5.197839      -141.4404 
  19   2.0000      -5.195524      -141.3774 
  20   2.0000      -1.282308       -34.8934 
  21   2.0000      -1.233119       -33.5549 
  22   2.0000      -1.210914       -32.9506 
  23   2.0000      -1.192756       -32.4565 
  24   2.0000      -1.168287       -31.7907 
  25   2.0000      -1.122806       -30.5531 
  26   2.0000      -1.047639       -28.5077 
  27   2.0000      -0.949135       -25.8273 
  28   2.0000      -0.924034       -25.1442 
  29   2.0000      -0.870024       -23.6745 
  30   2.0000      -0.841800       -22.9066 
  31   2.0000      -0.830909       -22.6102 
  32   2.0000      -0.802627       -21.8406 
  33   2.0000      -0.731375       -19.9017 
  34   2.0000      -0.698166       -18.9981 
  35   2.0000      -0.693931       -18.8828 
  36   2.0000      -0.688038       -18.7225 
  37   2.0000      -0.675661       -18.3857 
  38   2.0000      -0.656543       -17.8654 
  39   2.0000      -0.620433       -16.8828 
  40   2.0000      -0.610475       -16.6119 
  41   2.0000      -0.585266       -15.9259 
  42   2.0000      -0.582932       -15.8624 
  43   2.0000      -0.567363       -15.4387 
  44   2.0000      -0.564198       -15.3526 
  45   2.0000      -0.551354       -15.0031 
  46   2.0000      -0.544159       -14.8073 
  47   2.0000      -0.540969       -14.7205 
  48   2.0000      -0.538250       -14.6465 
  49   2.0000      -0.523421       -14.2430 
  50   2.0000      -0.513818       -13.9817 
  51   2.0000      -0.494444       -13.4545 
  52   2.0000      -0.493604       -13.4316 
  53   2.0000      -0.487781       -13.2732 
  54   2.0000      -0.479515       -13.0483 
  55   2.0000      -0.471533       -12.8311 
  56   2.0000      -0.466855       -12.7038 
  57   2.0000      -0.455658       -12.3991 
  58   2.0000      -0.448515       -12.2047 
  59   2.0000      -0.415107       -11.2956 
  60   2.0000      -0.412147       -11.2151 
  61   2.0000      -0.407348       -11.0845 
  62   2.0000      -0.398846       -10.8531 
  63   2.0000      -0.374338       -10.1862 
  64   2.0000      -0.365570        -9.9477 
  65   2.0000      -0.358407        -9.7527 
  66   2.0000      -0.349189        -9.5019 
  67   2.0000      -0.278197        -7.5701 
  68   0.0000       0.025777         0.7014 
  69   0.0000       0.041544         1.1305 
  70   0.0000       0.044456         1.2097 
  71   0.0000       0.048363         1.3160 
  72   0.0000       0.058084         1.5806 
  73   0.0000       0.062416         1.6984 
  74   0.0000       0.066768         1.8168 
  75   0.0000       0.071643         1.9495 
  76   0.0000       0.074829         2.0362 
  77   0.0000       0.081098         2.2068 
  78   0.0000       0.085007         2.3131 
*Only the first 10 virtual orbitals were printed.

                    ********************************
                    * MULLIKEN POPULATION ANALYSIS *
                    ********************************

-----------------------
MULLIKEN ATOMIC CHARGES
-----------------------
   0 C :   -0.233695
   1 C :   -0.311114
   2 O :   -0.446421
   3 O :   -0.780328
   4 O :   -0.733087
   5 O :   -0.552838
   6 P :    0.934484
   7 H :    0.072390
   8 H :    0.254614
   9 H :    0.220123
  10 H :   -0.173146
  11 H :    0.408805
  12 H :    0.348641
  13 C :   -0.608667
  14 C :   -0.053261
  15 H :    0.135145
  16 H :    0.318258
  17 N :    0.050174
  18 H :    0.219546
  19 H :    0.330908
  20 H :    0.117292
  21 H :    0.136554
  22 H :    0.272719
  23 H :    0.124844
  24 C :   -0.672666
  25 N :   -0.712571
  26 N :   -0.326181
  27 H :    0.409685
  28 C :    0.654375
  29 C :    0.403071
  30 H :   -0.073172
  31 C :   -0.226259
  32 H :    0.229577
  33 H :    0.203279
  34 H :    0.011490
  35 H :    0.047433
Sum of atomic charges:   -0.0000000

--------------------------------
MULLIKEN REDUCED ORBITAL CHARGES
--------------------------------
  0 C s       :     3.196556  s :     3.196556
      pz      :     1.135189  p :     2.891596
      px      :     0.737639
      py      :     1.018769
      dz2     :     0.018552  d :     0.128946
      dxz     :     0.013526
      dyz     :     0.023974
      dx2y2   :     0.033996
      dxy     :     0.038898
      f0      :     0.001859  f :     0.014893
      f+1     :     0.001583
      f-1     :     0.001215
      f+2     :     0.001263
      f-2     :     0.001680
      f+3     :     0.004842
      f-3     :     0.002450
      g0      :     0.000138  g :     0.001705
      g+1     :     0.000213
      g-1     :     0.000102
      g+2     :     0.000108
      g-2     :     0.000152
      g+3     :     0.000076
      g-3     :     0.000213
      g+4     :     0.000388
      g-4     :     0.000313

  1 C s       :     3.190560  s :     3.190560
      pz      :     0.991078  p :     2.975800
      px      :     1.032968
      py      :     0.951754
      dz2     :     0.010270  d :     0.128168
      dxz     :     0.037130
      dyz     :     0.024551
      dx2y2   :     0.018971
      dxy     :     0.037246
      f0      :     0.001394  f :     0.014883
      f+1     :     0.001358
      f-1     :     0.002523
      f+2     :     0.002990
      f-2     :     0.003360
      f+3     :     0.001546
      f-3     :     0.001712
      g0      :     0.000120  g :     0.001703
      g+1     :     0.000112
      g-1     :     0.000236
      g+2     :     0.000140
      g-2     :     0.000311
      g+3     :     0.000282
      g-3     :     0.000322
      g+4     :     0.000090
      g-4     :     0.000089

  2 O s       :     3.807180  s :     3.807180
      pz      :     1.518304  p :     4.636611
      px      :     1.429480
      py      :     1.688827
      dz2     :     0.004089  d :    -0.001635
      dxz     :    -0.007761
      dyz     :    -0.001719
      dx2y2   :     0.004742
      dxy     :    -0.000986
      f0      :     0.000641  f :     0.004106
      f+1     :     0.000496
      f-1     :     0.000475
      f+2     :     0.000379
      f-2     :     0.000606
      f+3     :     0.000669
      f-3     :     0.000840
      g0      :     0.000022  g :     0.000158
      g+1     :     0.000024
      g-1     :     0.000015
      g+2     :     0.000016
      g-2     :     0.000021
      g+3     :     0.000003
      g-3     :     0.000011
      g+4     :     0.000021
      g-4     :     0.000024

  3 O s       :     3.877884  s :     3.877884
      pz      :     1.681902  p :     4.880089
      px      :     1.614634
      py      :     1.583553
      dz2     :     0.002850  d :     0.020078
      dxz     :     0.003375
      dyz     :     0.003669
      dx2y2   :     0.006662
      dxy     :     0.003523
      f0      :     0.000157  f :     0.002203
      f+1     :     0.000286
      f-1     :     0.000300
      f+2     :     0.000330
      f-2     :     0.000360
      f+3     :     0.000355
      f-3     :     0.000416
      g0      :     0.000007  g :     0.000075
      g+1     :     0.000005
      g-1     :     0.000006
      g+2     :     0.000002
      g-2     :     0.000012
      g+3     :     0.000012
      g-3     :     0.000012
      g+4     :     0.000009
      g-4     :     0.000010

  4 O s       :     3.858238  s :     3.858238
      pz      :     1.607860  p :     4.869035
      px      :     1.543508
      py      :     1.717667
      dz2     :     0.000789  d :     0.003837
      dxz     :     0.001872
      dyz     :    -0.000215
      dx2y2   :     0.003486
      dxy     :    -0.002095
      f0      :     0.000184  f :     0.001903
      f+1     :     0.000420
      f-1     :     0.000110
      f+2     :     0.000329
      f-2     :     0.000333
      f+3     :     0.000282
      f-3     :     0.000246
      g0      :     0.000006  g :     0.000074
      g+1     :     0.000012
      g-1     :     0.000002
      g+2     :     0.000008
      g-2     :     0.000008
      g+3     :     0.000012
      g-3     :     0.000012
      g+4     :     0.000007
      g-4     :     0.000006

  5 O s       :     3.872745  s :     3.872745
      pz      :     1.593810  p :     4.666786
      px      :     1.639768
      py      :     1.433208
      dz2     :     0.001338  d :     0.009046
      dxz     :     0.002587
      dyz     :     0.000356
      dx2y2   :     0.003906
      dxy     :     0.000858
      f0      :     0.000321  f :     0.004105
      f+1     :     0.000261
      f-1     :     0.000429
      f+2     :     0.000584
      f-2     :     0.001034
      f+3     :     0.000780
      f-3     :     0.000696
      g0      :     0.000016  g :     0.000157
      g+1     :     0.000008
      g-1     :     0.000018
      g+2     :     0.000013
      g-2     :     0.000036
      g+3     :     0.000027
      g-3     :     0.000022
      g+4     :     0.000009
      g-4     :     0.000008

  6 P s       :     5.202392  s :     5.202392
      pz      :     2.633723  p :     7.877539
      px      :     2.614912
      py      :     2.628904
      dz2     :     0.154624  d :     0.796604
      dxz     :     0.145557
      dyz     :     0.155066
      dx2y2   :     0.186903
      dxy     :     0.154454
      f0      :     0.018274  f :     0.163053
      f+1     :     0.030436
      f-1     :     0.020817
      f+2     :     0.026971
      f-2     :     0.023286
      f+3     :     0.013934
      f-3     :     0.029334
      g0      :     0.003466  g :     0.025928
      g+1     :     0.002793
      g-1     :     0.002083
      g+2     :     0.002438
      g-2     :     0.003359
      g+3     :     0.003324
      g-3     :     0.002815
      g+4     :     0.002614
      g-4     :     0.003037

  7 H s       :     0.867657  s :     0.867657
      pz      :     0.043243  p :     0.056623
      px      :     0.002071
      py      :     0.011309
      dz2     :     0.000632  d :     0.003125
      dxz     :     0.001032
      dyz     :     0.001101
      dx2y2   :     0.000101
      dxy     :     0.000258
      f0      :     0.000042  f :     0.000206
      f+1     :     0.000049
      f-1     :     0.000072
      f+2     :     0.000015
      f-2     :     0.000025
      f+3     :     0.000001
      f-3     :     0.000002

  8 H s       :     0.683828  s :     0.683828
      pz      :     0.034990  p :     0.057674
      px      :     0.010003
      py      :     0.012682
      dz2     :     0.001287  d :     0.003663
      dxz     :     0.000230
      dyz     :     0.000460
      dx2y2   :     0.000498
      dxy     :     0.001189
      f0      :     0.000027  f :     0.000221
      f+1     :     0.000002
      f-1     :     0.000091
      f+2     :     0.000008
      f-2     :     0.000025
      f+3     :     0.000043
      f-3     :     0.000025

  9 H s       :     0.723283  s :     0.723283
      pz      :     0.009921  p :     0.052648
      px      :     0.023290
      py      :     0.019438
      dz2     :     0.000604  d :     0.003719
      dxz     :     0.000737
      dyz     :     0.000650
      dx2y2   :     0.001233
      dxy     :     0.000497
      f0      :     0.000023  f :     0.000226
      f+1     :     0.000037
      f-1     :     0.000031
      f+2     :     0.000006
      f-2     :     0.000048
      f+3     :     0.000059
      f-3     :     0.000023

 10 H s       :     1.071057  s :     1.071057
      pz      :     0.026128  p :     0.098806
      px      :     0.027884
      py      :     0.044793
      dz2     :     0.000472  d :     0.003078
      dxz     :     0.000516
      dyz     :     0.000633
      dx2y2   :     0.000759
      dxy     :     0.000699
      f0      :     0.000004  f :     0.000205
      f+1     :     0.000017
      f-1     :     0.000034
      f+2     :     0.000052
      f-2     :     0.000026
      f+3     :     0.000028
      f-3     :     0.000045

 11 H s       :     0.574402  s :     0.574402
      pz      :     0.013508  p :     0.012995
      px      :    -0.017232
      py      :     0.016719
      dz2     :     0.000786  d :     0.003578
      dxz     :     0.000658
      dyz     :     0.000702
      dx2y2   :     0.000789
      dxy     :     0.000643
      f0      :     0.000008  f :     0.000220
      f+1     :     0.000047
      f-1     :     0.000033
      f+2     :     0.000058
      f-2     :     0.000026
      f+3     :     0.000016
      f-3     :     0.000033

 12 H s       :     0.625857  s :     0.625857
      pz      :     0.010234  p :     0.021772
      px      :     0.017509
      py      :    -0.005972
      dz2     :     0.000766  d :     0.003512
      dxz     :     0.000635
      dyz     :     0.000749
      dx2y2   :     0.000653
      dxy     :     0.000709
      f0      :     0.000006  f :     0.000218
      f+1     :     0.000056
      f-1     :     0.000027
      f+2     :     0.000048
      f-2     :     0.000034
      f+3     :     0.000023
      f-3     :     0.000025

 13 C s       :     3.376155  s :     3.376155
      pz      :     0.911212  p :     3.134229
      px      :     1.104576
      py      :     1.118441
      dz2     :     0.025694  d :     0.090320
      dxz     :     0.004126
      dyz     :     0.022808
      dx2y2   :     0.032251
      dxy     :     0.005440
      f0      :     0.002005  f :     0.007367
      f+1     :     0.001282
      f-1     :     0.001615
      f+2     :     0.001083
      f-2     :     0.000047
      f+3     :     0.001233
      f-3     :     0.000103
      g0      :     0.000118  g :     0.000596
      g+1     :     0.000112
      g-1     :     0.000091
      g+2     :     0.000087
      g-2     :     0.000066
      g+3     :     0.000052
      g-3     :     0.000014
      g+4     :     0.000038
      g-4     :     0.000019

 14 C s       :     3.349422  s :     3.349422
      pz      :     0.650194  p :     2.609617
      px      :     1.058197
      py      :     0.901225
      dz2     :    -0.003350  d :     0.077514
      dxz     :     0.009460
      dyz     :     0.004677
      dx2y2   :     0.044562
      dxy     :     0.022165
      f0      :     0.003145  f :     0.015459
      f+1     :     0.001801
      f-1     :     0.003592
      f+2     :     0.002573
      f-2     :     0.001916
      f+3     :     0.001440
      f-3     :     0.000994
      g0      :     0.000177  g :     0.001248
      g+1     :     0.000129
      g-1     :     0.000196
      g+2     :     0.000174
      g-2     :     0.000189
      g+3     :     0.000141
      g-3     :     0.000113
      g+4     :     0.000072
      g-4     :     0.000057

 15 H s       :     0.808848  s :     0.808848
      pz      :     0.018022  p :     0.051738
      px      :     0.024074
      py      :     0.009641
      dz2     :     0.000220  d :     0.004046
      dxz     :     0.001812
      dyz     :     0.000092
      dx2y2   :     0.000428
      dxy     :     0.001493
      f0      :     0.000036  f :     0.000223
      f+1     :     0.000014
      f-1     :     0.000008
      f+2     :     0.000055
      f-2     :     0.000006
      f+3     :     0.000016
      f-3     :     0.000089

 16 H s       :     0.654769  s :     0.654769
      pz      :     0.018495  p :     0.022709
      px      :     0.008309
      py      :    -0.004095
      dz2     :     0.000535  d :     0.004039
      dxz     :     0.000093
      dyz     :     0.001408
      dx2y2   :     0.000926
      dxy     :     0.001076
      f0      :     0.000018  f :     0.000224
      f+1     :     0.000007
      f-1     :     0.000044
      f+2     :     0.000046
      f-2     :     0.000010
      f+3     :     0.000029
      f-3     :     0.000071

 17 N s       :     3.514607  s :     3.514607
      pz      :     1.049614  p :     3.352384
      px      :     1.177297
      py      :     1.125473
      dz2     :     0.020736  d :     0.077772
      dxz     :     0.012290
      dyz     :     0.007954
      dx2y2   :     0.028760
      dxy     :     0.008032
      f0      :     0.000629  f :     0.004775
      f+1     :     0.000610
      f-1     :     0.000852
      f+2     :     0.001267
      f-2     :     0.000629
      f+3     :     0.000234
      f-3     :     0.000554
      g0      :     0.000020  g :     0.000289
      g+1     :     0.000031
      g-1     :     0.000039
      g+2     :     0.000039
      g-2     :     0.000039
      g+3     :     0.000044
      g-3     :     0.000042
      g+4     :     0.000022
      g-4     :     0.000013

 18 H s       :     0.767508  s :     0.767508
      pz      :     0.002587  p :     0.004869
      px      :     0.013391
      py      :    -0.011108
      dz2     :     0.001124  d :     0.007434
      dxz     :     0.000465
      dyz     :     0.002651
      dx2y2   :     0.000912
      dxy     :     0.002283
      f0      :     0.000041  f :     0.000643
      f+1     :     0.000004
      f-1     :     0.000179
      f+2     :     0.000096
      f-2     :     0.000071
      f+3     :     0.000158
      f-3     :     0.000095

 19 H s       :     0.642533  s :     0.642533
      pz      :     0.004004  p :     0.018488
      px      :     0.004686
      py      :     0.009799
      dz2     :     0.000837  d :     0.007447
      dxz     :     0.002336
      dyz     :     0.000416
      dx2y2   :     0.001396
      dxy     :     0.002463
      f0      :     0.000056  f :     0.000624
      f+1     :     0.000108
      f-1     :     0.000009
      f+2     :     0.000136
      f-2     :     0.000057
      f+3     :     0.000126
      f-3     :     0.000131

 20 H s       :     0.871409  s :     0.871409
      pz      :    -0.073548  p :     0.001699
      px      :     0.053208
      py      :     0.022039
      dz2     :     0.002555  d :     0.008903
      dxz     :     0.002092
      dyz     :     0.002521
      dx2y2   :     0.000956
      dxy     :     0.000779
      f0      :     0.000195  f :     0.000697
      f+1     :     0.000154
      f-1     :     0.000123
      f+2     :     0.000091
      f-2     :     0.000104
      f+3     :     0.000021
      f-3     :     0.000009

 21 H s       :     0.811412  s :     0.811412
      pz      :     0.007032  p :     0.047878
      px      :     0.036210
      py      :     0.004636
      dz2     :     0.000158  d :     0.003909
      dxz     :     0.001616
      dyz     :     0.000027
      dx2y2   :     0.000400
      dxy     :     0.001708
      f0      :     0.000040  f :     0.000248
      f+1     :     0.000009
      f-1     :     0.000009
      f+2     :     0.000059
      f-2     :     0.000001
      f+3     :     0.000016
      f-3     :     0.000114

 22 H s       :     0.685986  s :     0.685986
      pz      :     0.013269  p :     0.037173
      px      :     0.009988
      py      :     0.013917
      dz2     :     0.001414  d :     0.003877
      dxz     :     0.000547
      dyz     :     0.000460
      dx2y2   :     0.000908
      dxy     :     0.000547
      f0      :     0.000033  f :     0.000244
      f+1     :     0.000018
      f-1     :     0.000063
      f+2     :     0.000052
      f-2     :     0.000026
      f+3     :     0.000007
      f-3     :     0.000045

 23 H s       :     0.810000  s :     0.810000
      pz      :     0.013070  p :     0.061109
      px      :     0.010666
      py      :     0.037372
      dz2     :     0.000420  d :     0.003803
      dxz     :     0.000206
      dyz     :     0.001229
      dx2y2   :     0.000972
      dxy     :     0.000976
      f0      :     0.000017  f :     0.000244
      f+1     :     0.000007
      f-1     :     0.000047
      f+2     :     0.000042
      f-2     :     0.000024
      f+3     :     0.000023
      f-3     :     0.000083

 24 C s       :     3.279520  s :     3.279520
      pz      :     1.087817  p :     3.287185
      px      :     1.108997
      py      :     1.090371
      dz2     :     0.015406  d :     0.098372
      dxz     :     0.028670
      dyz     :     0.017643
      dx2y2   :     0.001942
      dxy     :     0.034710
      f0      :     0.001205  f :     0.006983
      f+1     :     0.001304
      f-1     :     0.000954
      f+2     :     0.001044
      f-2     :     0.001345
      f+3     :     0.000948
      f-3     :     0.000183
      g0      :     0.000084  g :     0.000606
      g+1     :     0.000063
      g-1     :     0.000109
      g+2     :     0.000089
      g-2     :     0.000100
      g+3     :     0.000058
      g-3     :     0.000043
      g+4     :     0.000015
      g-4     :     0.000045

 25 N s       :     3.940168  s :     3.940168
      pz      :     1.059004  p :     3.695526
      px      :     1.222151
      py      :     1.414371
      dz2     :     0.015103  d :     0.068098
      dxz     :     0.007919
      dyz     :     0.013397
      dx2y2   :     0.017077
      dxy     :     0.014603
      f0      :     0.001203  f :     0.008253
      f+1     :     0.001099
      f-1     :     0.001358
      f+2     :     0.001437
      f-2     :     0.001493
      f+3     :     0.000898
      f-3     :     0.000764
      g0      :     0.000038  g :     0.000527
      g+1     :     0.000029
      g-1     :     0.000083
      g+2     :     0.000070
      g-2     :     0.000092
      g+3     :     0.000091
      g-3     :     0.000085
      g+4     :     0.000017
      g-4     :     0.000023

 26 N s       :     3.652500  s :     3.652500
      pz      :     1.158765  p :     3.595102
      px      :     1.306922
      py      :     1.129415
      dz2     :     0.011359  d :     0.067710
      dxz     :     0.006459
      dyz     :     0.009393
      dx2y2   :     0.031477
      dxy     :     0.009021
      f0      :     0.002050  f :     0.010329
      f+1     :     0.001111
      f-1     :     0.001203
      f+2     :     0.001372
      f-2     :     0.001791
      f+3     :     0.000962
      f-3     :     0.001840
      g0      :     0.000059  g :     0.000540
      g+1     :     0.000083
      g-1     :     0.000043
      g+2     :     0.000065
      g-2     :     0.000069
      g+3     :     0.000058
      g-3     :     0.000029
      g+4     :     0.000070
      g-4     :     0.000063

 27 H s       :     0.567455  s :     0.567455
      pz      :    -0.024538  p :     0.014121
      px      :     0.046915
      py      :    -0.008256
      dz2     :     0.002117  d :     0.008020
      dxz     :     0.001090
      dyz     :     0.001264
      dx2y2   :     0.001250
      dxy     :     0.002300
      f0      :     0.000057  f :     0.000719
      f+1     :     0.000012
      f-1     :     0.000214
      f+2     :     0.000091
      f-2     :     0.000153
      f+3     :     0.000120
      f-3     :     0.000072

 28 C s       :     3.066187  s :     3.066187
      pz      :     0.684207  p :     2.382953
      px      :     0.903392
      py      :     0.795355
      dz2     :    -0.010820  d :    -0.130261
      dxz     :    -0.058346
      dyz     :    -0.026447
      dx2y2   :    -0.015425
      dxy     :    -0.019224
      f0      :     0.002710  f :     0.024836
      f+1     :     0.004331
      f-1     :     0.004570
      f+2     :     0.004913
      f-2     :     0.003221
      f+3     :     0.003094
      f-3     :     0.001995
      g0      :     0.000188  g :     0.001911
      g+1     :     0.000222
      g-1     :     0.000208
      g+2     :     0.000242
      g-2     :     0.000256
      g+3     :     0.000295
      g-3     :     0.000221
      g+4     :     0.000147
      g-4     :     0.000131

 29 C s       :     3.106319  s :     3.106319
      pz      :     0.787874  p :     2.316964
      px      :     0.846906
      py      :     0.682184
      dz2     :     0.049540  d :     0.145463
      dxz     :     0.027767
      dyz     :    -0.016584
      dx2y2   :     0.033821
      dxy     :     0.050921
      f0      :     0.004908  f :     0.025814
      f+1     :     0.002723
      f-1     :     0.002992
      f+2     :     0.002918
      f-2     :     0.005085
      f+3     :     0.001999
      f-3     :     0.005188
      g0      :     0.000186  g :     0.002369
      g+1     :     0.000145
      g-1     :     0.000405
      g+2     :     0.000259
      g-2     :     0.000332
      g+3     :     0.000296
      g-3     :     0.000182
      g+4     :     0.000293
      g-4     :     0.000271

 30 H s       :     0.987767  s :     0.987767
      pz      :     0.041822  p :     0.082217
      px      :     0.040883
      py      :    -0.000488
      dz2     :     0.000962  d :     0.003010
      dxz     :     0.000413
      dyz     :     0.000658
      dx2y2   :     0.000444
      dxy     :     0.000532
      f0      :     0.000046  f :     0.000178
      f+1     :     0.000027
      f-1     :     0.000018
      f+2     :     0.000033
      f-2     :     0.000034
      f+3     :     0.000014
      f-3     :     0.000007

 31 C s       :     3.194987  s :     3.194987
      pz      :     0.929881  p :     2.861605
      px      :     1.033172
      py      :     0.898552
      dz2     :     0.057673  d :     0.148078
      dxz     :     0.010583
      dyz     :     0.011643
      dx2y2   :     0.021863
      dxy     :     0.046317
[...]
 16 H      0.6817     1.0000     0.3183     0.7068     0.7068    -0.0000
 17 N      6.9498     7.0000     0.0502     3.4846     3.4846     0.0000
 18 H      0.7805     1.0000     0.2195     0.9268     0.9268     0.0000
 19 H      0.6691     1.0000     0.3309     0.8055     0.8055    -0.0000
 20 H      0.8827     1.0000     0.1173     0.9705     0.9705    -0.0000
 21 H      0.8634     1.0000     0.1366     1.1233     1.1233     0.0000
 22 H      0.7273     1.0000     0.2727     0.9656     0.9656     0.0000
 23 H      0.8752     1.0000     0.1248     1.2134     1.2134     0.0000
 24 C      6.6727     6.0000    -0.6727     3.7096     3.7096    -0.0000
 25 N      7.7126     7.0000    -0.7126     2.4038     2.4038     0.0000
 26 N      7.3262     7.0000    -0.3262     3.3873     3.3873    -0.0000
 27 H      0.5903     1.0000     0.4097     0.6191     0.6191    -0.0000
 28 C      5.3456     6.0000     0.6544     3.1997     3.1997     0.0000
 29 C      5.5969     6.0000     0.4031     3.4020     3.4020    -0.0000
 30 H      1.0732     1.0000    -0.0732     1.2918     1.2918    -0.0000
 31 C      6.2263     6.0000    -0.2263     3.7099     3.7099    -0.0000
 32 H      0.7704     1.0000     0.2296     1.0367     1.0367    -0.0000
 33 H      0.7967     1.0000     0.2033     1.2314     1.2314    -0.0000
 34 H      0.9885     1.0000     0.0115     1.2214     1.2214    -0.0000
 35 H      0.9526     1.0000     0.0474     1.2655     1.2655     0.0000

  Mayer bond orders larger than 0.100000
B(  0-C ,  2-O ) :   0.7425 B(  0-C ,  7-H ) :   1.0934 B(  0-C ,  8-H ) :   0.8567 
B(  0-C ,  9-H ) :   0.9185 B(  0-C , 13-C ) :   0.8233 B(  0-C , 14-C ) :  -0.1201 
B(  0-C , 22-H ) :  -0.9025 B(  0-C , 23-H ) :   0.1572 B(  1-C ,  5-O ) :   0.8897 
B(  1-C , 10-H ) :   1.4008 B(  1-C , 11-H ) :   0.6960 B(  1-C , 12-H ) :   0.7617 
B(  1-C , 28-C ) :  -0.2427 B(  1-C , 31-C ) :  -0.1110 B(  1-C , 32-H ) :  -0.3550 
B(  1-C , 33-H ) :  -0.9473 B(  1-C , 34-H ) :   0.3116 B(  1-C , 35-H ) :   1.3193 
B(  2-O ,  5-O ) :  -0.1109 B(  2-O ,  6-P ) :   0.9118 B(  2-O , 35-H ) :   0.1823 
B(  3-O ,  6-P ) :   1.9757 B(  4-O ,  6-P ) :   1.6060 B(  4-O , 27-H ) :   0.1084 
B(  5-O ,  6-P ) :   0.9238 B(  5-O , 28-C ) :   0.1329 B(  5-O , 33-H ) :   0.3143 
B(  5-O , 34-H ) :   0.1040 B(  5-O , 35-H ) :  -0.6197 B(  6-P , 33-H ) :  -0.3923 
B(  6-P , 34-H ) :  -0.1102 B(  6-P , 35-H ) :   0.5676 B(  7-H , 13-C ) :  -1.3934 
B(  7-H , 14-C ) :   0.1773 B(  7-H , 22-H ) :   1.6574 B(  7-H , 23-H ) :  -0.3849 
B(  7-H , 24-C ) :  -0.2111 B(  7-H , 28-C ) :  -0.1600 B(  7-H , 33-H ) :   0.3060 
B(  8-H , 13-C ) :   0.4242 B(  8-H , 22-H ) :  -0.5491 B(  8-H , 23-H ) :   0.1440 
B(  9-H , 13-C ) :   0.1524 B(  9-H , 22-H ) :  -0.1977 B(  9-H , 24-C ) :   0.1333 
B(  9-H , 33-H ) :  -0.2188 B( 10-H , 28-C ) :   0.1633 B( 10-H , 30-H ) :   0.1320 
B( 10-H , 31-C ) :   0.2551 B( 10-H , 32-H ) :   0.5577 B( 10-H , 33-H ) :   3.5388 
B( 10-H , 34-H ) :  -0.5097 B( 10-H , 35-H ) :  -4.1739 B( 11-H , 31-C ) :  -0.1049 
B( 11-H , 32-H ) :  -0.1256 B( 11-H , 33-H ) :  -0.8866 B( 11-H , 35-H ) :   1.1250 
B( 12-H , 28-C ) :   0.1023 B( 12-H , 33-H ) :  -1.6414 B( 12-H , 34-H ) :   0.1528 
B( 12-H , 35-H ) :   1.6142 B( 13-C , 14-C ) :   0.8484 B( 13-C , 21-H ) :   1.0466 
B( 13-C , 22-H ) :   0.9019 B( 13-C , 23-H ) :   1.0307 B( 14-C , 15-H ) :   0.9618 
B( 14-C , 16-H ) :   0.8680 B( 14-C , 17-N ) :   0.8944 B( 16-H , 17-N ) :  -0.1029 
B( 17-N , 18-H ) :   0.9155 B( 17-N , 19-H ) :   0.8644 B( 17-N , 20-H ) :   1.0303 
B( 24-C , 25-N ) :  -0.2013 B( 24-C , 28-C ) :   0.6882 B( 24-C , 33-H ) :   1.0565 
B( 24-C , 34-H ) :   1.0848 B( 24-C , 35-H ) :   1.0615 B( 25-N , 28-C ) :   1.0906 
B( 25-N , 29-C ) :   1.2821 B( 25-N , 35-H ) :   0.1161 B( 26-N , 27-H ) :   0.6656 
B( 26-N , 29-C ) :   1.3756 B( 26-N , 30-H ) :   0.1433 B( 26-N , 31-C ) :   1.2023 
B( 28-C , 29-C ) :  -0.1679 B( 28-C , 31-C ) :   1.5415 B( 29-C , 30-H ) :   1.1722 
B( 30-H , 31-C ) :  -0.1028 B( 31-C , 32-H ) :   0.9476 B( 31-C , 33-H ) :   0.1177 


-------
TIMINGS
-------

Total SCF time: 0 days 0 hours 7 min 39 sec 

Total time                  ....     459.896 sec
Sum of individual times     ....     460.659 sec  (100.2%)

SCF preparation             ....       1.303 sec  (  0.3%)
Fock matrix formation       ....     438.952 sec  ( 95.4%)
  Startup                   ....       0.669 sec  (  0.2% of F)
  Split-RI-J                ....      20.399 sec  (  4.6% of F)
  Chain of spheres X        ....     344.645 sec  ( 78.5% of F)
  XC integration            ....      43.194 sec  (  9.8% of F)
    XC Preparation          ....       0.000 sec  (  0.0% of XC)
    Basis function eval.    ....       4.624 sec  ( 10.7% of XC)
    Density eval.           ....      15.609 sec  ( 36.1% of XC)
    XC-Functional eval.     ....       0.098 sec  (  0.2% of XC)
    XC-Potential eval.      ....      17.521 sec  ( 40.6% of XC)
  CPCM terms                ....      28.474 sec  (  6.5% of F)
Diagonalization             ....       0.000 sec  (  0.0%)
Density matrix formation    ....       1.813 sec  (  0.4%)
Total Energy calculation    ....       0.900 sec  (  0.2%)
Population analysis         ....       0.690 sec  (  0.2%)
Orbital Transformation      ....       2.265 sec  (  0.5%)
Orbital Orthonormalization  ....       0.000 sec  (  0.0%)
DIIS solution               ....       9.888 sec  (  2.2%)
SOSCF solution              ....       4.528 sec  (  1.0%)
Finished LeanSCF after 460.5 sec

Maximum memory used throughout the entire LEANSCF-calculation: 366.6 MB


           ************************************************************
           *        Program running with 10 parallel MPI-processes    *
           *              working on a common directory               *
           ************************************************************

------------------------------------------------------------------------------
                                ORCA  MP2 
------------------------------------------------------------------------------

Freezing NCore=40 chemical core electrons

-------------
RI-MP2 ENERGY
-------------
Dimension of the orbital basis            ... 1693
Dimension of the AuxC basis               ... 3838
Memory devoted to MP2                     ... 2000 MB   
Data format for matrix containers         ... DOUBLE
Compression type for matrix containers    ... UNCOMPRESSED
Scaling for aa/bb pairs                   ...   5.660e-02
Scaling for ab pairs                      ...   5.935e-01
Overall scaling of the MP2 energy         ...   1.000e+00

-----------------------
SHARK RI TRANSFORMATION
-----------------------

Number of basis functions                ...   1693
Number of aux functions                  ...   3838
Number of operators                      ...      1
Generation of IJK                        ... NO
Generation of IAK                        ... YES
Generation of ABK                        ... NO
Orbital Range Operator  0:   20-  67 to   68-1692

Aux basis identifier                     ...   AUXC
Contraction scheme used                  ... SEGMENTED
Do orthogonalization                     ... YES
All operator combinations                ... NO
Transpose (ia|K)                         ... NO
Integral generator used                  ... LIBINT
Starting integral generation + trafo... 
Half trafo (segmented) done. Total time = 31.9 sec. integrals=  8.6 sec trafo= 13.9 sec
Integral generation and half transformation done ( 31.9 sec)

Reading or making V^(-1/2)          ... done (  0.2 sec)
Sorting IAK integrals               ... done ( 13.2 sec)

SHARK RI integral transformation done. Total time = 45.3 sec.

Opening buffers                              ... done

Starting loop over batches of integrals:

Operator 0  - window                       ... ( 20- 67)x( 68-1692)
Operator 0  - Memory available             ...  2000 MB
Operator 0  - Memory needed per MO         ...  47.6 MB
Operator 0  - Number of orbitals per batch ... 5
Operator 0  - Number of batches            ... 1

OPERATOR  0   PASS   0:  MOs    20 ...   24 +   25 ...   29 +   30 ...   34 +   35 ...   39
                            +   40 ...   44 +   45 ...   49 +   50 ...   54 +   55 ...   59
                            +   60 ...   64 +   65 ...   67
  Reading integrals       ... ok
  Internal MO  22
Time spent in pair loops =   135.103 sec
Deleting buffers (Ka|jb) ...done

-----------------------------------------------
 RI-MP2 CORRELATION ENERGY:     -1.724660365 Eh
-----------------------------------------------


-------
TIMINGS
-------

Total time                :  186.614 sec
Integral trafo            :   45.403 sec ( 24.3%)
I/O of integrals          :    0.144 sec (  0.1%)
K(i,j) operators          :    5.089 sec (  2.7%)
T(i,j) pair energies      :    0.491 sec (  0.3%)
V**(-1/2)                 :    6.108 sec (  3.3%)


---------------------------------------
MP2 TOTAL ENERGY:    -1122.365687643 Eh
---------------------------------------

Maximum memory used throughout the entire MP2-calculation: 600.1 MB


-------------------------------------------------------------------------------
                          DFT DISPERSION CORRECTION                            
                                                                               
                                DFTD4 V3.4.0                                   
-------------------------------------------------------------------------------
The REV-DSD-PBEP86-2021 functional is recognized
A user input s6-coefficient scaling factor has been recognized
A user input a1-coefficient scaling factor has been recognized
A user input s8-coefficient scaling factor has been recognized
A user input a2-coefficient scaling factor has been recognized
A user input s9-coefficient scaling factor has been recognized
Active option DFTDOPT                   ...         5   

-------------------------   ----------------
Dispersion correction           -0.023224026
-------------------------   ----------------


-------------------------   --------------------
FINAL SINGLE POINT ENERGY     -1122.388911669550
-------------------------   --------------------



           ************************************************************
           *        Program running with 10 parallel MPI-processes    *
           *              working on a common directory               *
           ************************************************************

------------------------------------------------------------------------------
                              ORCA PROPERTY CALCULATIONS
------------------------------------------------------------------------------

GBWName                                 ... bh-pg_cplx.gbw
Number of atoms                         ...     36
Number of basis functions               ...   1693
Max core memory                         ...   2000 MB

Electric properties:
Dipole moment                           ... YES
Quadrupole moment                       ...  NO
Static polarizability (Dipole/Dipole)   ...  NO
Static polarizability (Dipole/Quad.)    ...  NO
Static polarizability (Quad./Quad.)     ...  NO
Static polarizability (Velocity)        ...  NO

Atomic electric properties:
Dipole moment                           ...  NO
Quadrupole moment                       ...  NO
Static polarizability                   ...  NO

Choice of electric origin               ... Center of mass
Position of electric origin             ...     4.035068    -4.140697    -1.610931

General magnetic properties:
Magnetizability                         ...  NO

EPR properties:
g-Tensor (aka g-matrix)                 ...  NO
Zero-Field splitting spin-orbit         ...  NO
Zero-field splitting spin-spin          ...  NO
Hyperfine couplings                     ...  NO (   0 nuclei)
Quadrupole couplings                    ...  NO (   0 nuclei)
Contact density                         ...  NO (   0 nuclei)

NMR properties:
Chemical shifts                         ...  NO (   0 nuclei)
Spin-rotation constants                 ...  NO (   0 nuclei)
Spin-spin couplings                     ...  NO (   0 nuclei,    0 pairs)

Choice of magnetic origin               ... GIAO
Position of magnetic origin             ...     0.000000     0.000000     0.000000

Properties with geometric perturbations:
SCF Hessian                             ...  NO
IR spectrum                             ...  NO
VCD spectrum                            ...  NO
X-ray spectroscopy properties:
SCF XES/XAS/RIXS spectra                ...  NO


-------------
DIPOLE MOMENT
-------------

Method             : SCF
Type of density    : Electron Density
Multiplicity       :   1
Irrep              :   0
Energy             : -1120.6410272782636639 Eh
Relativity type    : 
Basis              : AO
                                X                 Y                 Z
Electronic contribution:      2.688700287       2.851508822     -16.930117944
Nuclear contribution   :     -2.912378670      -6.035617954      20.601189155
                        -----------------------------------------
Total Dipole Moment    :     -0.223678383      -3.184109132       3.671071212
                        -----------------------------------------
Magnitude (a.u.)       :      4.864704187
Magnitude (Debye)      :     12.365095372



--------------------
Rotational spectrum 
--------------------
 
Rotational constants in cm-1:             0.017949             0.009761             0.006979 
Rotational constants in MHz :           538.091068           292.635090           209.218516 

Dipole components along the rotational axes: 
x,y,z [a.u.] :     1.179009    -4.445955     1.583908 
x,y,z [Debye]:     2.996804   -11.300720     4.025975 

 

Dipole moment calculation done in   0.2 sec 

Maximum memory used throughout the entire PROP-calculation: 239.6 MB

--------------------------------
SUGGESTED CITATIONS FOR THIS RUN
--------------------------------

Below you find a list of papers that are relevant to this ORCA run
We neither can nor want to force you to cite these papers, but we appreciate if you do
You receive ORCA, which is the product of decades of hard work by many enthusiastic individuals, for free
The only thing we kindly ask in return is that you cite our papers,
We deeply appreciate it, if you show your appreciation for ORCA by not just citing the generic ORCA reference.

Please note that relegating all ORCA citations to the supporting information does *not* help us.
SI sections are not indexed - citations you put there will not count into any citation statistics
But we need these citations in order to attract the funding resources that allow us to do what we are doing

Therefore, if you are a happy ORCA user, please consider citing a few of the papers listed below in the main body of your paper

In addition to the list printed below, the program has created the file bh-pg_cplx.bibtex that contains the list in bibtex format
You can import this file easily into all common literature databanks and citation aid programs


List of essential papers. We consider these as the minimum necessary citations

  1. Neese,F.
     Software update: the ORCA program system, version 5.0
     WIRES Comput. Molec. Sci., 2022 12(1)e1606
     doi.org/10.1002/wcms.1606

List of papers to cite with high priority. The work reported in these papers was absolutely
necessary for this run to complete.
Our perspective: the developers of density functionals and basis sets usually get cited in chemistry papers
Good! But without the algorithms to do something with them, the functionals or basis sets would not do anything.
Hence, in our opinion, the algorithm design and method developments papers are equally worthy of getting cited

  1. Neese,F.
     An improvement of the resolution of the identity approximation for the formation of the Coulomb matrix
     J. Comp. Chem., 2003 24(14)1740-1747
     doi.org/10.1002/jcc.10318
  2. Neese,F.; Wennmohs,F.; Hansen,A.; Becker,U.
     Efficient, approximate and parallel Hartree-Fock and hybrid DFT calculations. A 'chain-of-spheres' algorithm for the Hartree-Fock exchange
     Chem. Phys., 2009 356(1-3)98-109
     doi.org/10.1016/j.chemphys.2008.10.036
  3. Kossmann,S.; Neese,F.
     Efficient Structure Optimization with Second-Order Many-Body Perturbation Theory: The RIJCOSX-MP2 Method
     J. Theo. Comp. Chem., 2010 6 2325-2338
     doi.org/10.1021/ct100199k
  4. Garcia-Rates,M.; Neese,F.
     Effect of the Solute Cavity on the Solvation Energy and its Derivatives within the Framework of the Gaussian Charge Scheme
     J. Comput. Chem., 2020 41 922-939
     doi.org/10.1002/jcc.26139
  5. Helmich-Paris,B.; de Souza,B.; Neese,F.; Izsák,R.
     An improved chain of spheres for exchange algorithm
     J. Chem. Phys., 2021 155 104109
     doi.org/doi: 10.1063/5.0058766.
  6. Neese,F.
     The SHARK Integral Generation and Digestion System
     J. Comp. Chem., 2022  1-16
     doi.org/10.1002/jcc.26942
  7. Caldeweyher,E.; Bannwarth,C.; Grimme,S.
     Extension of the D3 dispersion coefficient model
     J. Chem. Phys., 2017 147 034112
     doi.org/10.1063/1.4993215
  8. Caldeweyher,E.; Ehlert,S.; Hansen,A.; Neugebauer,H.; Spicher,S.; Bannwarth,C.; Grimme,S.
     A generally applicable atomic-charge dependent London dispersion correction
     J. Chem. Phys., 2019 150 154122
     doi.org/10.1063/1.5090222
  9. Caldeweyher,E.; Mewes,J.; Ehlert,S.; Grimme,S.
     Extension and evaluation of the D4 London-dispersion model for periodic systems
     Phys. Chem. Chem. Phys., 2020 22(16)8499-8512
     doi.org/10.1039/D0CP00502A
 10. Wittmann,L.; Gordiy,I.; Friede,M.; Helmich-Paris,B.; Grimme,S.; Hansen,A.; Bursch,M.
     Extension of the D3 and D4 London Dispersion Corrections to the full Actinides Series
     Phys. Chem. Chem. Phys., 2024 26(32)21379-21394
     doi.org/https://doi.org/10.1039/D4CP01514B 

List of suggested additional citations. These are papers that are important in the 'surrounding' of 
of this run, or papers that preceded the highly important papers. If you like your results we are grateful for a citation.

  1. Izsak,R.; Neese,F.
     An overlap fitted chain of spheres exchange method
     J. Chem. Phys., 2011 135 144105
     doi.org/10.1063/1.3646921
  2. Izsak,R.; Hansen,A.; Neese,F.
     The resolution of identity and chain of spheres approximations for the LPNO-CCSD singles Fock term
     Molec. Phys., 2012 110 2413-2417
     doi.org/10.1080/00268976.2012.687466
  3. Neese,F.
     The ORCA program system
     WIRES Comput. Molec. Sci., 2012 2(1)73-78
     doi.org/10.1002/wcms.81
  4. Izsak,R.; Neese,F.; Klopper,W.
     Robust fitting techniques in the chain of spheres approximation to the Fock exchange: The role of the complementary space
     J. Chem. Phys., 2013 139 
     doi.org/10.1063/1.4819264
  5. Neese,F.
     Software update: the ORCA program system, version 4.0
     WIRES Comput. Molec. Sci., 2018 8(1)1-6
     doi.org/10.1002/wcms.1327
  6. Neese,F.; Wennmohs,F.; Becker,U.; Riplinger,C.
     The ORCA quantum chemistry program package
     J. Chem. Phys., 2020 152 Art. No. L224108
     doi.org/10.1063/5.0004608

List of optional additional citations

  1. Neese,F.
     Approximate second-order SCF convergence for spin unrestricted wavefunctions
     Chem. Phys. Lett., 2000 325(1-3)93-98
     doi.org/10.1016/s0009-2614(00)00662-x

Timings for individual modules:

Sum of individual times          ...      666.537 sec (=  11.109 min)
Startup calculation              ...        9.941 sec (=   0.166 min)   1.5 %
SCF iterations                   ...      466.839 sec (=   7.781 min)  70.0 %
Property calculations            ...        1.523 sec (=   0.025 min)   0.2 %
MP2 module                       ...      188.233 sec (=   3.137 min)  28.2 %
                             ****ORCA TERMINATED NORMALLY****
TOTAL RUN TIME: 0 days 0 hours 11 minutes 7 seconds 292 msec
