
                                 *****************
                                 * O   R   C   A *
                                 *****************

                                            #,                                       
                                            ###                                      
                                            ####                                     
                                            #####                                    
                                            ######                                   
                                           ########,                                 
                                     ,,################,,,,,                         
                               ,,#################################,,                 
                          ,,##########################################,,             
                       ,#########################################, ''#####,          
                    ,#############################################,,   '####,        
                  ,##################################################,,,,####,       
                ,###########''''           ''''###############################       
              ,#####''   ,,,,##########,,,,          '''####'''          '####       
            ,##' ,,,,###########################,,,                        '##       
           ' ,,###''''                  '''############,,,                           
         ,,##''                                '''############,,,,        ,,,,,,###''
      ,#''                                            '''#######################'''  
     '                                                          ''''####''''         
             ,#######,   #######,   ,#######,      ##                                
            ,#'     '#,  ##    ##  ,#'     '#,    #''#        ,####,   ,####,        
            ##       ##  ##   ,#'  ##            #'  '#       #'       #'  '#        
            ##       ##  #######   ##           ,######,      #####,   #    #        
            '#,     ,#'  ##    ##  '#,     ,#' ,#      #,     #,   #   #,  ,#        
             '#######'   ##     ##  '#######'  #'      '#     '####' # '####'        



                #########################################################
                #                        -***-                          #
                #          Department of theory and spectroscopy        #
                #                                                       #
                #                      Frank Neese                      #
                #                                                       #
                #     Directorship, Architecture, Infrastructure        #
                #                    SHARK, DRIVERS                     #
                #        Core code/Algorithms in most modules           #
                #                                                       #
                #        Max Planck Institute fuer Kohlenforschung      #
                #                Kaiser Wilhelm Platz 1                 #
                #                 D-45470 Muelheim/Ruhr                 #
                #                      Germany                          #
                #                                                       #
                #                  All rights reserved                  #
                #                        -***-                          #
                #########################################################


                         Program Version 6.0.1  -  RELEASE   -


 With contributions from (in alphabetic order):
[Max-Planck-Institut fuer Kohlenforschung]                               
  Daniel Aravena         : Magnetic Suceptibility                        
  Michael Atanasov       : Ab Initio Ligand Field Theory (pilot matlab implementation)
  Alexander A. Auer      : GIAO ZORA, VPT2 properties, NMR spectrum      
  Ute Becker             : All parallelization in ORCA, NUMFREQ, NUMCALC 
  Giovanni Bistoni       : ED, misc. LED, open-shell LED, HFLD           
  Martin Brehm           : Molecular dynamics                            
  Dmytro Bykov           : pre 5.0 version of the SCF Hessian            
  Marcos Casanova-Páez   : Triplet and SCS-CIS(D). UHF-(DLPNO)-IP/EA/STEOM-CCSD. UHF-CVS-IP/STEOM-CCSD   
  Vijay G. Chilkuri      : MRCI spin determinant printing, contributions to CSF-ICE 
  Pauline Colinet        : FMM embedding                                 
  Dipayan Datta          : RHF DLPNO-CCSD density                        
  Achintya Kumar Dutta   : EOM-CC, STEOM-CC                              
  Nicolas Foglia         : Exact transition moments, OPA infrastructure, MCD improvements    
  Dmitry Ganyushin       : Spin-Orbit,Spin-Spin,Magnetic field MRCI      
  Miquel Garcia-Rates    : C-PCM and meta-GGA Hessian, CCSD/C-PCM, Gaussian charge scheme 
  Tiago L. C. Gouveia    : GS-ROHF, GS-ROCIS                             
  Yang Guo               : DLPNO-NEVPT2, F12-NEVPT2, CIM, IAO-localization        
  Andreas Hansen         : Spin unrestricted coupled pair/coupled cluster methods 
  Ingolf Harden          : AUTO-CI MPn and infrastructure                
  Benjamin Helmich-Paris : MC-RPA, TRAH-(SCF,CASSCF), AVAS, COSX integrals, SCF dyn. polar. 
  Lee Huntington         : MR-EOM, pCC                                   
  Robert Izsak           : Overlap fitted RIJCOSX, COSX-SCS-MP3, EOM     
  Riya Kayal             : Wick's Theorem for AUTO-CI, AUTO-CI UHF-CCSDT 
  Emily Kempfer          : AUTO-CI, RHF CISDT and CCSDT                  
  Christian Kollmar      : KDIIS, OOCD, Brueckner-CCSD(T), CCSD density, CASPT2, CASPT2-K, improved NEVPT2 
  Axel Koslowski         : Symmetry handling                             
  Simone Kossmann        : meta-GGA functionals, TD-DFT gradient, OOMP2, (MP2 Hessian; deprecated post 5.0) 
  Lucas Lang             : DCDCAS                                        
  Marvin Lechner         : AUTO-CI (C++ implementation), FIC-MRCC        
  Spencer Leger          : CASSCF response                               
  Dagmar Lenk            : GEPOL surface, SMD, ORCA-2-JSON               
  Dimitrios Liakos       : Extrapolation schemes; Compound Job, initial MDCI parallelization 
  Dimitrios Manganas     : Further ROCIS development; embedding schemes. LFT, Crystal Embedding 
  Dimitrios Pantazis     : SARC Basis sets                               
  Anastasios Papadopoulos: AUTO-CI, single reference methods and gradients 
  Taras Petrenko         : pre 6.0 DFT Hessian and TD-DFT gradient, (ASA, deprecated), ECA, 1-Electron XAS/XES, NRVS 
  Peter Pinski           : DLPNO-MP2, DLPNO-MP2 Gradient                 
  Christoph Reimann      : Effective Core Potentials                     
  Marius Retegan         : Local ZFS, SOC                                
  Christoph Riplinger    : Optimizer, TS searches, QM/MM, DLPNO-CCSD(T), (RO)-DLPNO pert. Triples 
  Michael Roemelt        : Original ROCIS implementation                 
  Masaaki Saitow         : Open-shell DLPNO-CCSD energy and density      
  Barbara Sandhoefer     : DKH picture change effects                    
  Kantharuban Sivalingam : CASSCF convergence/infrastructure, NEVPT2 and variants, FIC-MRCI 
  Bernardo de Souza      : ESD, SOC TD-DFT                               
  Georgi L. Stoychev     : AutoAux, RI-MP2 NMR, DLPNO-MP2 response, X2C  
  Van Anh Tran           : RI-MP2 g-tensors                              
  Willem Van den Heuvel  : Paramagnetic NMR                              
  Zikuan Wang            : NOTCH, Electric field optimization            
  Frank Wennmohs         : Technical directorship and infrastructure     
  Hang Xu                : AUTO-CI-Response properties                   
                                                                         
[FACCTs GmbH]                                                            
  Markus Bursch, Miquel Garcia-Rates, Christoph Riplinger, Bernardo de Souza, Georgi L. Stoychev 
                                                                 
  APM, Basis sets (HGBS, AHGBS, def-TZVP (Ac-Lr), def2-XVPD (La-Lu)), CI-OPT, improved COSX, DLPNO-Multilevel,           
  DOCKER, DRACO, updates on ESD, GOAT, IRC, LR-CPCM, MBIS, meta-GGA TD-DFT gradient, ML-optimized integration grids, 
  MM, NACMEs, nearIR, NEB, NEB-TS, NL-DFT gradient (VV10), 2- and 3-layer-ONIOM, interface openCOSMO-RS, QMMM,   
  Crystal-QMMM, SF, symmetry and pop. for TD-DFT, r2SCAN hybrids, SOLVATOR                                   
                                                                         
[Other institutions]                                                     
  V. Asgeirsson          : NEB                                           
  Christoph Bannwarth    : sTDA-DFT, sTD-DFT, PBEh-3c, B97-3c, D3        
  Sebastian Ehlert       : rSCAN, r2SCAN, r2SCAN-3c, D4, dhf basis sets  
  Marvin Friede          : D4 for Fr, Ra, Ac-Lr                          
  Lars Goerigk           : TD-DFT with DH, B97 family of functionals     
  Stefan Grimme          : VdW corrections, initial TS optimization, DFT functionals, gCP, sTDA/sTD-DF 
  Waldemar Hujo          : DFT-NL                                        
  H. Jonsson             : NEB                                           
  Holger Kruse           : gCP                                           
  Marcel Mueller         : wB97X-3c, vDZP basis set                      
  Hagen Neugebauer       : wr2SCAN                                       
  Tobias Risthaus        : range-separated hybrid DFT                    
  Lukas Wittmann         : regularized MP2, r2SCAN double-hybrids, wr2SCAN        
                                                                         
We gratefully acknowledge several colleagues who have allowed us to      
interface, adapt or use parts of their codes:                            
  Ed Valeev, F. Pavosevic, A. Kumar             : LibInt (2-el integral package), F12 methods 
  Garnet Chan, S. Sharma, J. Yang, R. Olivares  : DMRG                   
  Ulf Ekstrom                                   : XCFun DFT Library      
  Mihaly Kallay                                 : mrcc  (arbitrary order and MRCC methods)
  Frank Weinhold                                : gennbo (NPA and NBO analysis)           
  Simon Mueller                                 : openCOSMO-RS                            
  Christopher J. Cramer and Donald G. Truhlar   : smd solvation model                     
  S Lehtola, MJT Oliveira, MAL Marques          : LibXC Library                           
  Liviu Ungur et al                             : ANISO software                          


 Your calculation uses the libint2 library for the computation of 2-el integrals
 For citations please refer to: http://libint.valeyev.net

 Your ORCA version has been built with support for libXC version: 6.2.2
 For citations please refer to: https://libxc.gitlab.io

 This ORCA versions uses:
   CBLAS   interface :  Fast vector & matrix operations
   LAPACKE interface :  Fast linear algebra routines
   SCALAPACK package :  Parallel linear algebra routines
   Shared memory     :  Shared parallel matrices
   BLAS/LAPACK       :  OpenBLAS 0.3.27  USE64BITINT DYNAMIC_ARCH NO_AFFINITY Haswell SINGLE_THREADED
        Core in use  :  Haswell
   Copyright (c) 2011-2014, The OpenBLAS Project


NOTE: MaxCore=2000 MB was set to SCF,MP2,MDCI,CIPSI,MRCI and CIS
      => If you want to overwrite this, your respective input block should be placed after the MaxCore statement
Your calculation utilizes the atom-pairwise dispersion correction
based on EEQ partial charges (D4)


================================================================================

----- Orbital basis set information -----
Your calculation utilizes the basis: def2-QZVPPD
   F. Weigend and R. Ahlrichs, Phys. Chem. Chem. Phys. 7, 3297 (2005).
   D. Rappoport and F. Furche, J. Chem. Phys. 133, 134105 (2010)
   D. Rappoport, J. Chem. Phys. 155, 124102 (2021).

----- AuxJ basis set information -----
Your calculation utilizes the auxiliary basis: def2/J
   F. Weigend, Phys. Chem. Chem. Phys. 8, 1057 (2006).

----- AuxC basis set information -----
Your calculation utilizes the auxiliary basis: def2-QZVPPD/C
   A. Hellweg, C. Hattig, S. Hofener and W. Klopper, Theor. Chem. Acc. 117, 587 (2007).
  A. Hellweg and D. Rappoport; Phys. Chem. Chem. Phys. 17, 1010 (2015).

================================================================================
                                        WARNINGS
                       Please study these warnings very carefully!
================================================================================


WARNING: No MP2 level density has been requested!
         To calculate MP2 level properties use
         %mp2 Density relaxed end
         or
         %mp2 Density unrelaxed end
         Otherwise for double-hybrid DFT only the energy is correct!

WARNING: The frozen-core approximation is turned on by default for 
         the MP2 part of double-hybrid DFT.

================================================================================
                                       INPUT FILE
================================================================================
NAME = pg1_frag.inp
|  1> # ------------------------------------
|  2> # bH_POPG (b2 & H3 ghosted); ion pair-pi
|  3> # ------------------------------------
|  4> ! SP revDSD-PBEP86-D4/2021 def2-QZVPPD RIJCOSX def2/J TightSCF CPCM
|  5> %basis
|  6>   basis   "def2-QZVPPD"
|  7>   aux     "def2/J"           # RI-J (for SCF/RIJCOSX)
|  8>   auxC    "def2-QZVPPD/C"    # required for RI-MP2 (AuxC)
|  9> end
| 10> %pal
| 11>     nprocs 10
| 12> end
| 13> %MaxCore 2000
| 14> %cpcm 
| 15>    epsilon 3 
| 16> end
| 17> *xyz -1 1
| 18> # POPG1
| 19> C      1.20000     -1.81000      -4.27400
| 20> C      4.37700     -5.09000      -2.19600
| 21> O      2.45600     -2.41300      -4.07300
| 22> O      3.82400     -1.91400      -1.94100
| 23> O      1.71700     -3.37400      -1.78500
| 24> O      3.78400     -4.20100      -3.11300
| 25> P      2.91700     -2.92000      -2.61200
| 26> H      1.08800     -1.54300      -5.32500
| 27> H      1.12600     -0.91100      -3.66100
| 28> H      0.41200     -2.50800      -3.99000
| 29> H      4.90800     -5.87200      -2.73900
| 30> H      5.07900     -4.54500      -1.56500
| 31> H      3.60300     -5.54000      -1.57400
| 32> # Dab2 ghosted
| 33> C:     2.89500     -3.89300       3.17500
| 34> C:     2.40400     -4.20600       1.76600
| 35> H:     1.30500     -4.18800       1.71900
| 36> H:     2.72000     -5.21200       1.46000
| 37> N:     2.91700     -3.25700       0.75500
| 38> H:     2.90500     -2.29100       1.13600
| 39> H:     3.90100     -3.46200       0.48000
| 40> H:     2.36700     -3.30000      -0.13600
| 41> H:     3.98400     -3.91700       3.19500
| 42> H:     2.50200     -4.63600       3.86900
| 43> H:     2.54700     -2.90200       3.46900
| 44> # His3 ghosted
| 45> C:    -0.09100      0.94200       2.50500
| 46> N:     1.25100      0.93200       0.37600
| 47> N:     0.78100     -1.05700      -0.46400
| 48> H:     0.88600     -1.89600      -1.05200
| 49> C:     0.33400      0.30900       1.18500
| 50> C:     1.50400      0.08300      -0.59600
| 51> H:     2.19700      0.23600      -1.42600
| 52> C:     0.02800     -0.93200       0.67500
| 53> H:    -0.65000     -1.71300       1.01500
| 54> H:    -0.82100      0.30000       2.99800
| 55> H:     0.78100      1.06200       3.14800
| 56> H:    -0.53700      1.91800       2.31200
| 57> *
| 58> 
| 59> 
| 60> 
| 61>                          ****END OF INPUT****
================================================================================

                       ****************************
                       * Single Point Calculation *
                       ****************************

---------------------------------
CARTESIAN COORDINATES (ANGSTROEM)
---------------------------------
  C      1.200000   -1.810000   -4.274000
  C      4.377000   -5.090000   -2.196000
  O      2.456000   -2.413000   -4.073000
  O      3.824000   -1.914000   -1.941000
  O      1.717000   -3.374000   -1.785000
  O      3.784000   -4.201000   -3.113000
  P      2.917000   -2.920000   -2.612000
  H      1.088000   -1.543000   -5.325000
  H      1.126000   -0.911000   -3.661000
  H      0.412000   -2.508000   -3.990000
  H      4.908000   -5.872000   -2.739000
  H      5.079000   -4.545000   -1.565000
  H      3.603000   -5.540000   -1.574000
  C      2.895000   -3.893000    3.175000
  C      2.404000   -4.206000    1.766000
  H      1.305000   -4.188000    1.719000
  H      2.720000   -5.212000    1.460000
  N      2.917000   -3.257000    0.755000
  H      2.905000   -2.291000    1.136000
  H      3.901000   -3.462000    0.480000
  H      2.367000   -3.300000   -0.136000
  H      3.984000   -3.917000    3.195000
  H      2.502000   -4.636000    3.869000
  H      2.547000   -2.902000    3.469000
  C     -0.091000    0.942000    2.505000
  N      1.251000    0.932000    0.376000
  N      0.781000   -1.057000   -0.464000
  H      0.886000   -1.896000   -1.052000
  C      0.334000    0.309000    1.185000
  C      1.504000    0.083000   -0.596000
  H      2.197000    0.236000   -1.426000
  C      0.028000   -0.932000    0.675000
  H     -0.650000   -1.713000    1.015000
  H     -0.821000    0.300000    2.998000
  H      0.781000    1.062000    3.148000
  H     -0.537000    1.918000    2.312000

----------------------------
CARTESIAN COORDINATES (A.U.)
----------------------------
  NO LB      ZA    FRAG     MASS         X           Y           Z
   0 C     6.0000    0    12.011    2.267671   -3.420404   -8.076689
   1 C     6.0000    0    12.011    8.271331   -9.618706   -4.149839
   2 O     8.0000    0    15.999    4.641167   -4.559909   -7.696855
   3 O     8.0000    0    15.999    7.226313   -3.616936   -3.667958
   4 O     8.0000    0    15.999    3.244660   -6.375936   -3.373161
   5 O     8.0000    0    15.999    7.150724   -7.938739   -5.882717
   6 P    15.0000    0    30.974    5.512331   -5.518000   -4.935965
   7 H     1.0000    0     1.008    2.056022   -2.915847  -10.062792
   8 H     1.0000    0     1.008    2.127832   -1.721541   -6.918287
   9 H     1.0000    0     1.008    0.778567   -4.739433   -7.540007
  10 H     1.0000    0     1.008    9.274776  -11.096472   -5.175960
  11 H     1.0000    0     1.008    9.597919   -8.588805   -2.957421
  12 H     1.0000    0     1.008    6.808683  -10.469083   -2.974429
  13 C     0.0000    0     0.000    5.470757   -7.356704    5.999880
  14 C     0.0000    0     0.000    4.542902   -7.948188    3.337256
  15 H     0.0000    0     0.000    2.466093   -7.914173    3.248439
  16 H     0.0000    0     0.000    5.140055   -9.849253    2.759000
  17 N     0.0000    0     0.000    5.512331   -6.154838    1.426743
  18 H     0.0000    0     0.000    5.489654   -4.329363    2.146729
  19 H     0.0000    0     0.000    7.371822   -6.542232    0.907069
  20 H     0.0000    0     0.000    4.472982   -6.236096   -0.257003
  21 H     0.0000    0     0.000    7.528669   -7.402057    6.037675
  22 H     0.0000    0     0.000    4.728095   -8.760770    7.311350
  23 H     0.0000    0     0.000    4.813132   -5.483985    6.555460
  24 C     0.0000    0     0.000   -0.171965    1.780122    4.733764
  25 N     0.0000    0     0.000    2.364047    1.761225    0.710537
  26 N     0.0000    0     0.000    1.475876   -1.997441   -0.876833
  27 H     0.0000    0     0.000    1.674297   -3.582921   -1.987992
  28 C     0.0000    0     0.000    0.631169    0.583925    2.239325
  29 C     0.0000    0     0.000    2.842148    0.156847   -1.126277
  30 H     0.0000    0     0.000    4.151728    0.445975   -2.694749
  31 C     0.0000    0     0.000    0.052912   -1.761225    1.275565
  32 H     0.0000    0     0.000   -1.228322   -3.237101    1.918072
  33 H     0.0000    0     0.000   -1.551465    0.566918    5.665399
  34 H     0.0000    0     0.000    1.475876    2.006889    5.948858
  35 H     0.0000    0     0.000   -1.014783    3.624495    4.369047

--------------------------------
INTERNAL COORDINATES (ANGSTROEM)
--------------------------------
 C      0   0   0     0.000000000000     0.00000000     0.00000000
 C      1   0   0     5.016952561067     0.00000000     0.00000000
 O      1   2   0     1.407673967934    25.28123889     0.00000000
 O      3   1   2     2.581830552147   120.52301864   284.47651044
 O      4   3   1     2.568148165508    60.36788558    72.21390298
 O      2   1   3     1.408140262900    18.34845888   332.34394895
 P      4   3   1     1.511597168560    35.59839551   101.42144077
 H      1   2   6     1.090153200243   128.64573047    18.64259107
 H      1   2   6     1.090617256420   110.43090424   239.80273094
 H      1   2   6     1.090322887956    86.05731466   130.55029693
 H      2   1   3     1.090107334165   124.82999911   296.12324982
 H      2   1   3     1.089949540116   108.70761060    67.75635470
 H      2   1   3     1.090165125107    93.24420546   179.57822580
 C     13   2   1     5.076108154876   119.92616569   266.10211733
 C     14  13   2     1.524575678673    27.58444170   124.66736505
 H     15  14  13     1.100151807707   110.96780715   167.31465046
 H     15  14  13     1.097965391076   110.67012264    48.81301268
 N     15  14  13     1.478475904437   112.85791985   288.52756120
 H     18  15  14     1.038489768847   110.01014250   319.58627088
 H     18  15  14     1.042068135968   112.44696129    78.61274685
 H     18  15  14     1.047964694062   111.89761883   196.83578131
 H     14  13   2     1.089448025378    82.56551879   316.71333112
 H     14  13   2     1.090015596219   115.13680205   208.62412100
 H     14  13   2     1.090697483265   126.26260366    65.49827579
 C     19  18  15     4.615459457086   140.16553054   293.62445455
 N     25  19  18     2.516685320019    53.14139994   254.10184755
 N     26  25  19     2.209665359280   102.22451948    52.30044610
 H     27  26  25     1.029898053207   158.22427676   198.43907132
 C     26  25  19     1.372406280953    31.44285129    58.00128748
 C     26  25  19     1.315140296698   136.91817041    49.05083415
 H     30  26  25     1.092043039445   126.39652281   185.34582786
 C     27  26  25     1.371114510170    73.67757865     3.22789191
 H     32  27  26     1.088689579265   122.41503301   179.49592061
 H     25  19  18     1.090005963286    98.99317660    38.63348726
 H     25  19  18     1.090061007467    74.50267853   146.50076875
 H     25  19  18     1.090293997049   147.14751731   248.49595554

---------------------------
INTERNAL COORDINATES (A.U.)
---------------------------
 C      0   0   0     0.000000000000     0.00000000     0.00000000
 C      1   0   0     9.480666367292     0.00000000     0.00000000
 O      1   2   0     2.660118285246    25.28123889     0.00000000
 O      3   1   2     4.878952667749   120.52301864   284.47651044
 O      4   3   1     4.853096704142    60.36788558    72.21390298
 O      2   1   3     2.660999455029    18.34845888   332.34394895
 P      4   3   1     2.856504673390    35.59839551   101.42144077
 H      1   2   6     2.060090992477   128.64573047    18.64259107
 H      1   2   6     2.060967931561   110.43090424   239.80273094
 H      1   2   6     2.060411655782    86.05731466   130.55029693
 H      2   1   3     2.060004318151   124.82999911   296.12324982
 H      2   1   3     2.059706130613   108.70761060    67.75635470
 H      2   1   3     2.060113527205    93.24420546   179.57822580
 C     13   2   1     9.592454238880   119.92616569   266.10211733
 C     14  13   2     2.881030503128    27.58444170   124.66736505
 H     15  14  13     2.078985622304   110.96780715   167.31465046
 H     15  14  13     2.074853893657   110.67012264    48.81301268
 N     15  14  13     2.793914554987   112.85791985   288.52756120
 H     18  15  14     1.962461256000   110.01014250   319.58627088
 H     18  15  14     1.969223389865   112.44696129    78.61274685
 H     18  15  14     1.980366269795   111.89761883   196.83578131
 H     14  13   2     2.058758405106    82.56551879   316.71333112
 H     14  13   2     2.059830958556   115.13680205   208.62412100
 H     14  13   2     2.061119538327   126.26260366    65.49827579
 C     19  18  15     8.721954356108   140.16553054   293.62445455
 N     25  19  18     4.755846020096    53.14139994   254.10184755
 N     26  25  19     4.175662376651   102.22451948    52.30044610
 H     27  26  25     1.946225266420   158.22427676   198.43907132
 C     26  25  19     2.593472015475    31.44285129    58.00128748
 C     26  25  19     2.485254988444   136.91817041    49.05083415
 H     30  26  25     2.063662271006   126.39652281   185.34582786
 C     27  26  25     2.591030922468    73.67757865     3.22789191
 H     32  27  26     2.057325149665   122.41503301   179.49592061
 H     25  19  18     2.059812754952    98.99317660    38.63348726
 H     25  19  18     2.059916773379    74.50267853   146.50076875
 H     25  19  18     2.060357059880   147.14751731   248.49595554

---------------------
BASIS SET INFORMATION
---------------------
There are 5 groups of distinct atoms

 Group   1 Type C   : 16s8p4d2f1g contracted to 8s4p4d2f1g pattern {82111111/5111/1111/11/1}
 Group   2 Type O   : 16s9p4d2f1g contracted to 8s5p4d2f1g pattern {82111111/51111/1111/11/1}
 Group   3 Type P   : 21s14p5d2f1g contracted to 10s6p5d2f1g pattern {10311111111/821111/11111/11/1}
 Group   4 Type H   : 7s4p2d1f contracted to 4s4p2d1f pattern {4111/1111/11/1}
 Group   5 Type N   : 16s8p4d2f1g contracted to 8s4p4d2f1g pattern {82111111/5111/1111/11/1}

Atom   0C    basis set group =>   1
Atom   1C    basis set group =>   1
Atom   2O    basis set group =>   2
Atom   3O    basis set group =>   2
Atom   4O    basis set group =>   2
Atom   5O    basis set group =>   2
Atom   6P    basis set group =>   3
Atom   7H    basis set group =>   4
Atom   8H    basis set group =>   4
Atom   9H    basis set group =>   4
Atom  10H    basis set group =>   4
Atom  11H    basis set group =>   4
Atom  12H    basis set group =>   4
Atom  13C    basis set group =>   1
Atom  14C    basis set group =>   1
Atom  15H    basis set group =>   4
Atom  16H    basis set group =>   4
Atom  17N    basis set group =>   5
Atom  18H    basis set group =>   4
Atom  19H    basis set group =>   4
Atom  20H    basis set group =>   4
Atom  21H    basis set group =>   4
Atom  22H    basis set group =>   4
Atom  23H    basis set group =>   4
Atom  24C    basis set group =>   1
Atom  25N    basis set group =>   5
Atom  26N    basis set group =>   5
Atom  27H    basis set group =>   4
Atom  28C    basis set group =>   1
Atom  29C    basis set group =>   1
Atom  30H    basis set group =>   4
Atom  31C    basis set group =>   1
Atom  32H    basis set group =>   4
Atom  33H    basis set group =>   4
Atom  34H    basis set group =>   4
Atom  35H    basis set group =>   4
---------------------------------
AUXILIARY/J BASIS SET INFORMATION
---------------------------------
There are 5 groups of distinct atoms

 Group   1 Type C   : 12s5p4d2f1g contracted to 6s4p3d1f1g pattern {711111/2111/211/2/1}
 Group   2 Type O   : 12s5p4d2f1g contracted to 6s4p3d1f1g pattern {711111/2111/211/2/1}
 Group   3 Type P   : 14s5p5d2f1g contracted to 8s4p3d1f1g pattern {71111111/2111/311/2/1}
 Group   4 Type H   : 5s2p1d contracted to 3s1p1d pattern {311/2/1}
 Group   5 Type N   : 12s5p4d2f1g contracted to 6s4p3d1f1g pattern {711111/2111/211/2/1}

Atom   0C    basis set group =>   1
Atom   1C    basis set group =>   1
Atom   2O    basis set group =>   2
Atom   3O    basis set group =>   2
Atom   4O    basis set group =>   2
Atom   5O    basis set group =>   2
Atom   6P    basis set group =>   3
Atom   7H    basis set group =>   4
Atom   8H    basis set group =>   4
Atom   9H    basis set group =>   4
Atom  10H    basis set group =>   4
Atom  11H    basis set group =>   4
Atom  12H    basis set group =>   4
Atom  13C    basis set group =>   1
Atom  14C    basis set group =>   1
Atom  15H    basis set group =>   4
Atom  16H    basis set group =>   4
Atom  17N    basis set group =>   5
Atom  18H    basis set group =>   4
Atom  19H    basis set group =>   4
Atom  20H    basis set group =>   4
Atom  21H    basis set group =>   4
Atom  22H    basis set group =>   4
Atom  23H    basis set group =>   4
Atom  24C    basis set group =>   1
Atom  25N    basis set group =>   5
Atom  26N    basis set group =>   5
Atom  27H    basis set group =>   4
Atom  28C    basis set group =>   1
Atom  29C    basis set group =>   1
Atom  30H    basis set group =>   4
Atom  31C    basis set group =>   1
Atom  32H    basis set group =>   4
Atom  33H    basis set group =>   4
Atom  34H    basis set group =>   4
Atom  35H    basis set group =>   4
---------------------------------
AUXILIARY/C BASIS SET INFORMATION
---------------------------------
There are 5 groups of distinct atoms

 Group   1 Type C   : 10s9p8d6f3g1h contracted to 10s9p8d6f3g1h pattern {1111111111/111111111/11111111/111111/111/1}
 Group   2 Type O   : 10s9p8d6f3g1h contracted to 10s9p8d6f3g1h pattern {1111111111/111111111/11111111/111111/111/1}
 Group   3 Type P   : 13s11p10d7f3g1h contracted to 13s11p10d7f3g1h pattern {1111111111111/11111111111/1111111111/1111111/111/1}
 Group   4 Type H   : 7s5p4d2f1g contracted to 7s5p4d2f1g pattern {1111111/11111/1111/11/1}
 Group   5 Type N   : 10s9p8d6f3g1h contracted to 10s9p8d6f3g1h pattern {1111111111/111111111/11111111/111111/111/1}

Atom   0C    basis set group =>   1
Atom   1C    basis set group =>   1
Atom   2O    basis set group =>   2
Atom   3O    basis set group =>   2
Atom   4O    basis set group =>   2
Atom   5O    basis set group =>   2
Atom   6P    basis set group =>   3
Atom   7H    basis set group =>   4
Atom   8H    basis set group =>   4
Atom   9H    basis set group =>   4
Atom  10H    basis set group =>   4
Atom  11H    basis set group =>   4
Atom  12H    basis set group =>   4
Atom  13C    basis set group =>   1
Atom  14C    basis set group =>   1
Atom  15H    basis set group =>   4
Atom  16H    basis set group =>   4
Atom  17N    basis set group =>   5
Atom  18H    basis set group =>   4
Atom  19H    basis set group =>   4
Atom  20H    basis set group =>   4
Atom  21H    basis set group =>   4
Atom  22H    basis set group =>   4
Atom  23H    basis set group =>   4
Atom  24C    basis set group =>   1
Atom  25N    basis set group =>   5
Atom  26N    basis set group =>   5
Atom  27H    basis set group =>   4
Atom  28C    basis set group =>   1
Atom  29C    basis set group =>   1
Atom  30H    basis set group =>   4
Atom  31C    basis set group =>   1
Atom  32H    basis set group =>   4
Atom  33H    basis set group =>   4
Atom  34H    basis set group =>   4
Atom  35H    basis set group =>   4


           ************************************************************
           *        Program running with 10 parallel MPI-processes    *
           *              working on a common directory               *
           ************************************************************
------------------------------------------------------------------------------
                             ORCA STARTUP CALCULATIONS
                           -- RI-GTO INTEGRALS CHOSEN --
------------------------------------------------------------------------------
------------------------------------------------------------------------------
                   ___                                                        
                  /   \      - P O W E R E D   B Y -                         
                 /     \                                                     
                 |  |  |   _    _      __       _____    __    __             
                 |  |  |  | |  | |    /  \     |  _  \  |  |  /  |          
                  \  \/   | |  | |   /    \    | | | |  |  | /  /          
                 / \  \   | |__| |  /  /\  \   | |_| |  |  |/  /          
                |  |  |   |  __  | /  /__\  \  |    /   |      \           
                |  |  |   | |  | | |   __   |  |    \   |  |\   \          
                \     /   | |  | | |  |  |  |  | |\  \  |  | \   \       
                 \___/    |_|  |_| |__|  |__|  |_| \__\ |__|  \__/        
                                                                              
                      - O R C A' S   B I G   F R I E N D -                    
                                      &                                       
                       - I N T E G R A L  F E E D E R -                       
                                                                              
 v1 FN, 2020, v2 2021, v3 2022-2024                                           
------------------------------------------------------------------------------


----------------------
SHARK INTEGRAL PACKAGE
----------------------

Number of atoms                             ...     36
Number of basis functions                   ...   1693
Number of shells                            ...    533
Maximum angular momentum                    ...      4
Integral batch strategy                     ... SHARK/LIBINT Hybrid
RI-J (if used) integral strategy            ... SPLIT-RIJ (Revised 2003 algorithm where possible)
Printlevel                                  ...      1
Contraction scheme used                     ... SEGMENTED contraction
Prescreening option                         ... SCHWARTZ
   Thresh                                   ... 2.500e-11
   Tcut                                     ... 2.500e-12
   Tpresel                                  ... 2.500e-12 
Coulomb Range Separation                    ... NOT USED
Exchange Range Separation                   ... NOT USED
Multipole approximations                    ... NOT USED
Finite Nucleus Model                        ... NOT USED
CABS basis                                  ... NOT available
Auxiliary Coulomb fitting basis             ... AVAILABLE
   # of basis functions in Aux-J            ...   1006
   # of shells in Aux-J                     ...    342
   Maximum angular momentum in Aux-J        ...      4
Auxiliary J/K fitting basis                 ... NOT available
Auxiliary Correlation fitting basis         ... AVAILABLE
   # of basis functions in Aux-C            ...   3838
   # of shells in Aux-C                     ...    980
   Maximum angular momentum in Aux-C        ...      5
Auxiliary 'external' fitting basis          ... NOT available

Checking pre-screening integrals            ... done (  0.0 sec) Dimension = 533
Check shell pair data                       ... done (  0.0 sec)
Shell pair information
Shell pair cut-off parameter TPreSel        ...   2.5e-12
Total number of shell pairs                 ...    142311
Shell pairs after pre-screening             ...     98730
Total number of primitive shell pairs       ...    314810
Primitive shell pairs kept                  ...    161664
          la=0 lb=0:  15035 shell pairs
          la=1 lb=0:  23313 shell pairs
          la=1 lb=1:   9049 shell pairs
          la=2 lb=0:  14925 shell pairs
          la=2 lb=1:  11732 shell pairs
          la=2 lb=2:   3785 shell pairs
          la=3 lb=0:   6444 shell pairs
          la=3 lb=1:   5327 shell pairs
          la=3 lb=2:   3253 shell pairs
          la=3 lb=3:    690 shell pairs
          la=4 lb=0:   2012 shell pairs
          la=4 lb=1:   1662 shell pairs
          la=4 lb=2:   1014 shell pairs
          la=4 lb=3:    413 shell pairs
          la=4 lb=4:     76 shell pairs

Calculating one electron integrals          ... done (  0.2 sec)
Calculating RI/J V-Matrix + Cholesky decomp.... done (  0.0 sec)
Calculating RI/C V-Matrix + Cholesky decomp.... done (  0.6 sec)
Calculating Nuclear repulsion               ... done (  0.0 sec) ENN=    434.617718803656 Eh

Diagonalization of the overlap matrix:
Smallest eigenvalue                        ... 1.466e-07
Time for diagonalization                   ...    0.414 sec
Threshold for overlap eigenvalues          ... 1.000e-07
Number of eigenvalues below threshold      ... 0

IMPORTANT:
Smallest eigenvalue of S below the DiffSThresh (1.000e-06) while
Thresh>1e-12 and/or TCut>1e-13! In order to avoid SCF convergence issues,
Thresh will be set to at least 1e-12 and TCut to at least 1e-13.
This can be turned off by adding %SCF DiffSThresh -1 END to the input.

Time for construction of square roots      ...    0.256 sec
Total time needed                          ...    0.691 sec

-------------------
DFT GRID GENERATION
-------------------

General Integration Accuracy     IntAcc      ... 4.388
Radial Grid Type                 RadialGrid  ... OptM3 with GC (2021)
Angular Grid (max. ang.)         AngularGrid ... 4 (Lebedev-302)
Angular grid pruning method      GridPruning ... 4 (adaptive)
Weight generation scheme         WeightScheme... mBecke (2022)
Basis function cutoff            BFCut       ... 1.0000e-11
Integration weight cutoff        WCut        ... 1.0000e-14
Partially contracted basis set               ... off
Rotationally invariant grid construction     ... off
Angular grids for H and He will be reduced by one unit
Diffuse basis detected: some atoms will have their outermost
                        angular grid increased by 1.

Total number of grid points                  ...   168871
Total number of batches                      ...     2655
Average number of points per batch           ...       63
Average number of grid points per atom       ...     4691

--------------------
COSX GRID GENERATION
--------------------

GRIDX 1
-------
General Integration Accuracy     IntAcc      ... 3.816
Radial Grid Type                 RadialGrid  ... OptM3 with GC (2021)
Angular Grid (max. ang.)         AngularGrid ... 1 (Lebedev-50)
Angular grid pruning method      GridPruning ... 4 (adaptive)
Weight generation scheme         WeightScheme... mBecke (2022)
Basis function cutoff            BFCut       ... 1.0000e-11
Integration weight cutoff        WCut        ... 1.0000e-14
Partially contracted basis set               ... on
Rotationally invariant grid construction     ... off
Angular grids for H and He will be reduced by one unit
Diffuse basis detected: some atoms will have their outermost
                        angular grid increased by 1.

Total number of grid points                  ...    22056
Total number of batches                      ...      192
Average number of points per batch           ...      114
Average number of grid points per atom       ...      613
UseSFitting                                  ... on

GRIDX 2
-------
General Integration Accuracy     IntAcc      ... 4.020
Radial Grid Type                 RadialGrid  ... OptM3 with GC (2021)
Angular Grid (max. ang.)         AngularGrid ... 2 (Lebedev-110)
Angular grid pruning method      GridPruning ... 4 (adaptive)
Weight generation scheme         WeightScheme... mBecke (2022)
Basis function cutoff            BFCut       ... 1.0000e-11
Integration weight cutoff        WCut        ... 1.0000e-14
Partially contracted basis set               ... on
Rotationally invariant grid construction     ... off
Angular grids for H and He will be reduced by one unit
Diffuse basis detected: some atoms will have their outermost
                        angular grid increased by 1.

Total number of grid points                  ...    48958
Total number of batches                      ...      402
Average number of points per batch           ...      121
Average number of grid points per atom       ...     1360
UseSFitting                                  ... on

GRIDX 3
-------
General Integration Accuracy     IntAcc      ... 4.338
Radial Grid Type                 RadialGrid  ... OptM3 with GC (2021)
Angular Grid (max. ang.)         AngularGrid ... 3 (Lebedev-194)
Angular grid pruning method      GridPruning ... 4 (adaptive)
Weight generation scheme         WeightScheme... mBecke (2022)
Basis function cutoff            BFCut       ... 1.0000e-11
Integration weight cutoff        WCut        ... 1.0000e-14
Partially contracted basis set               ... on
Rotationally invariant grid construction     ... off
Angular grids for H and He will be reduced by one unit
Diffuse basis detected: some atoms will have their outermost
                        angular grid increased by 1.

Total number of grid points                  ...   109083
Total number of batches                      ...      872
Average number of points per batch           ...      125
Average number of grid points per atom       ...     3030
UseSFitting                                  ... on
Initializing property integral containers    ... done (  0.0 sec)

SHARK setup successfully completed in   9.1 seconds

Maximum memory used throughout the entire STARTUP-calculation: 233.2 MB


           ************************************************************
           *        Program running with 10 parallel MPI-processes    *
           *              working on a common directory               *
           ************************************************************
-------------------------------------------------------------------------------
                                 ORCA GUESS
                   Start orbitals & Density for SCF / CASSCF
-------------------------------------------------------------------------------

------------
SCF SETTINGS
------------
Hamiltonian:
 Density Functional     Method          .... DFT(GTOs)
 Exchange Functional    Exchange        .... PBE
   PBE kappa parameter   XKappa         ....  0.804000
   PBE mue parameter    XMuePBE         ....  0.219520
 Correlation Functional Correlation     .... P86
 LDA part of GGA corr.  LDAOpt          .... VWN-5
 Gradients option       PostSCFGGA      .... off
 Hybrid DFT is turned on
   Fraction HF Exchange ScalHFX         ....  0.690000
   Scaling of DF-GGA-X  ScalDFX         ....  0.310000
   Scaling of DF-GGA-C  ScalDFC         ....  0.422400
   Scaling of DF-LDA-C  ScalLDAC        ....  0.422400
   Perturbative correction              ....  1.000000
 RI-approximation to the Coulomb term is turned on
   Number of AuxJ basis functions       .... 1006
   RIJ-COSX (HFX calculated with COS-X)).... on


General Settings:
 Integral files         IntName         .... pg1_frag
 Hartree-Fock type      HFTyp           .... RHF
 Total Charge           Charge          ....   -1
 Multiplicity           Mult            ....    1
 Number of Electrons    NEL             ....   66
 Basis Dimension        Dim             .... 1693
 Nuclear Repulsion      ENuc            ....    434.6177188037 Eh

Convergence Acceleration:
 AO-DIIS                CNVDIIS         .... on
   Start iteration      DIISMaxIt       ....    12
   Startup error        DIISStart       ....  0.200000
   # of expansion vecs  DIISMaxEq       ....     5
   Bias factor          DIISBfac        ....   1.050
   Max. coefficient     DIISMaxC        ....  10.000
 MO-DIIS                CNVKDIIS        .... off
 Trust-Rad. Augm. Hess. CNVTRAH         .... auto
   Auto Start mean grad. ratio tolernc. ....  1.125000
   Auto Start start iteration           ....    50
   Auto Start num. interpolation iter.  ....    10
   Max. Number of Micro iterations      ....    24
   Max. Number of Macro iterations      .... Maxiter - #DIIS iter
   Number of Davidson start vectors     ....     2
   Converg. threshold    (grad. norm)   ....   1.000e-05
   Grad. Scal. Fac. for Micro threshold ....   0.100
   Minimum threshold for Micro iter.    ....   1.000e-02
   NR start threshold (gradient norm)   ....   1.000e-04
   Initial trust radius                 ....   0.400
   Minimum AH scaling param. (alpha)    ....   1.000
   Maximum AH scaling param. (alpha)    .... 1000.000
   Quad. conv. algorithm                .... NR
   White noise on init. David. guess    .... on
   Maximum white noise                  ....   0.010
   Pseudo random numbers                .... off
   Inactive MOs                         .... canonical
   Orbital update algorithm             .... Taylor
   Preconditioner                       .... Diag
   Full preconditioner red. dimension   ....   250
 SOSCF                  CNVSOSCF        .... on
   Start iteration      SOSCFMaxIt      ....   150
   Startup grad/error   SOSCFStart      ....  0.003300
   Hessian update       SOSCFHessUp     .... L-BFGS
 Level Shifting         CNVShift        .... on
   Level shift para.    LevelShift      ....    0.2500
   Turn off err/grad.   ShiftErr        ....    0.0010
 Zerner damping         CNVZerner       .... off
 Static damping         CNVDamp         .... on
   Fraction old density DampFac         ....    0.7000
   Max. Damping (<1)    DampMax         ....    0.9800
   Min. Damping (>=0)   DampMin         ....    0.0000
   Turn off err/grad.   DampErr         ....    0.1000

SCF Procedure:
 Maximum # iterations   MaxIter         ....   125
 SCF integral mode      SCFMode         .... Direct
   Integral package                     .... SHARK and LIBINT hybrid scheme
 Reset frequency        DirectResetFreq ....    20
 Integral Threshold     Thresh          ....  1.000e-12 Eh
 Primitive CutOff       TCut            ....  1.000e-13 Eh

Convergence Tolerance:
 Convergence Check Mode ConvCheckMode   .... Total+1el-Energy
 Convergence forced     ConvForced      .... 0
 Energy Change          TolE            ....  1.000e-08 Eh
 1-El. energy change                    ....  1.000e-05 Eh
 Orbital Gradient       TolG            ....  1.000e-05
 Orbital Rotation angle TolX            ....  1.000e-05
 DIIS Error             TolErr          ....  5.000e-07

------------------------------
INITIAL GUESS: MODEL POTENTIAL
------------------------------
Loading Hartree-Fock densities                     ... done
Calculating cut-offs                               ... done
Initializing the effective Hamiltonian             ... done
Setting up the integral package (SHARK)            ... done
Starting the Coulomb interaction                   ... done (   0.6 sec)
Making the grid                                    ... done (   0.3 sec)
Mapping shells                                     ... done
Starting the XC term evaluation                    ... done (   1.1 sec)
  promolecular density results
     # of electrons  =     64.993820285
     EX              =    -67.177250785
     EC              =      0.054956769
     EX+EC           =    -67.122294016
Transforming the Hamiltonian                       ... done (   0.2 sec)
Diagonalizing the Hamiltonian                      ... done (   0.5 sec)
Back transforming the eigenvectors                 ... done (   0.1 sec)
Now organizing SCF variables                       ... done
                      ------------------
                      INITIAL GUESS DONE (   3.0 sec)
                      ------------------
             **** ENERGY FILE WAS UPDATED (pg1_frag.en.tmp) ****
Finished Guess after   4.3 sec
Maximum memory used throughout the entire GUESS-calculation: 223.7 MB


           ************************************************************
           *        Program running with 10 parallel MPI-processes    *
           *              working on a common directory               *
           ************************************************************

-------------------------------------------------------------------------------------------
                                      ORCA LEAN-SCF
                              memory conserving SCF solver
-------------------------------------------------------------------------------------------

--------------------
CPCM SOLVATION MODEL
--------------------
CPCM parameters:
  Epsilon                                         ...       3.0000
  Refrac                                          ...       1.3300
  Rsolv                                           ...       1.3000
  Surface type                                    ... GAUSSIAN VDW
  Discretization scheme                           ... Constant charge density
    Threshold for H atoms                         ...       5.0000 (charges/Ang^2)
    Threshold for non-H atoms                     ...       5.0000 (charges/Ang^2)
  Epsilon function type                           ...         CPCM
Solvent:                                          ... CUSTOM
Radii:
  Scheme                                          ... Element-dependent radii
  Radius for C  used is    3.8550 Bohr (=   2.0400 Ang.)
  Radius for O  used is    3.4469 Bohr (=   1.8240 Ang.)
  Radius for P  used is    4.0818 Bohr (=   2.1600 Ang.)
  Radius for H  used is    2.4944 Bohr (=   1.3200 Ang.)
  Radius for N  used is    3.5149 Bohr (=   1.8600 Ang.)
Calculating surface                               ...        done! (  0.0s)
Cavity surface points                             ...         3205
Cavity Volume                                     ...    2099.2051
Cavity Surface-area                               ...    1174.9063
Calculating surface distance matrix               ...        done! (  0.0s)
Performing Cholesky decomposition & store         ...        done! (  0.2s)
Overall time for CPCM initialization              ...                 0.2s

----------------------------------------D-I-I-S--------------------------------------------
Iteration    Energy (Eh)           Delta-E    RMSDP     MaxDP     DIISErr   Damp  Time(sec)
-------------------------------------------------------------------------------------------
               ***  Starting incremental Fock matrix formation  ***
    1    -720.5094903931759518     0.00e+00  1.26e-02  8.29e+00  3.84e-01  0.700  36.6
    2    -720.6542137177983705    -1.45e-01  1.42e-02  8.86e+00  1.95e-01  0.700  22.9
                               ***Turning on AO-DIIS***
    3    -720.7225759087804136    -6.84e-02  1.34e-02  6.79e+00  8.07e-02  0.700  21.3
    4    -720.7637519714704695    -4.12e-02  3.79e-02  1.70e+01  5.33e-02  0.000  21.1
    5    -720.8541638722205107    -9.04e-02  3.93e-03  2.34e+00  5.21e-03  0.000  22.2
                              *** Initializing SOSCF ***
---------------------------------------S-O-S-C-F--------------------------------------
Iteration    Energy (Eh)           Delta-E    RMSDP     MaxDP     MaxGrad    Time(sec)
--------------------------------------------------------------------------------------
    6    -720.8543306431605515    -1.67e-04  5.42e-04  2.94e-01  1.92e-03    20.9
               *** Restarting incremental Fock matrix formation ***
    7    -720.8543484060952551    -1.78e-05  3.20e-02  1.49e+01  1.77e-04    37.1
    8    -720.8543662598602850    -1.79e-05  2.79e-03  1.02e+00  5.59e-05    34.6
    9    -720.8543673624923258    -1.10e-06  1.85e-03  6.49e-01  4.15e-05    31.2
   10    -720.8543673121911297     5.03e-08  2.47e-04  8.88e-02  4.79e-06    28.6
   11    -720.8543672712236230     4.10e-08  4.14e-05  1.30e-02  3.04e-06    24.1
   12    -720.8543672726519844    -1.43e-09  6.05e-05  2.45e-02  1.04e-06    20.3
                 **** Energy Check signals convergence ****

               *****************************************************
               *                     SUCCESS                       *
               *           SCF CONVERGED AFTER  12 CYCLES          *
               *****************************************************

Recomputing exchange energy using gridx3       ... done (   58.881 sec)
Old exchange energy                            :    -47.320122662 Eh
New exchange energy                            :    -47.320058537 Eh
Exchange energy change after final integration :      0.000064124 Eh
Total energy after final integration           :   -720.854303148 Eh
             **** ENERGY FILE WAS UPDATED (pg1_frag.en.tmp) ****

----------------
TOTAL SCF ENERGY
----------------

Total Energy       :       -720.85430314833968 Eh          -19615.44282 eV

Components:
Nuclear Repulsion  :        434.61771880365575 Eh           11826.54938 eV
Electronic Energy  :      -1155.39993731707864 Eh          -31440.03067 eV
One Electron Energy:      -1871.37193094009353 Eh          -50922.61910 eV
Two Electron Energy:        715.97199362301478 Eh           19482.58842 eV
CPCM Dielectric    :         -0.07214875922896 Eh              -1.96327 eV

Virial components:
Potential Energy   :      -1440.30851186305517 Eh          -39192.78713 eV
Kinetic Energy     :        719.45420871471561 Eh           19577.34431 eV
Virial Ratio       :          2.00194605079332

DFT components:
N(Alpha)           :       33.000002070440 electrons
N(Beta)            :       33.000002070440 electrons
N(Total)           :       66.000004140879 electrons
E(X)               :      -21.185693689883 Eh       
E(C)               :       -1.086942577353 Eh       
E(XC)              :      -22.272636267236 Eh       

CPCM Solvation Model Properties:
Surface-charge          :          0.98445013341024
Corrected charge        :          1.00000000000000
Outlying charge corr.   :          0.00000908626891 Eh               0.00025 eV
Free-energy (cav+disp)  :  This term is not implemented in the current solvation scheme

---------------
SCF CONVERGENCE
---------------

  Last Energy change         ...    1.4284e-09  Tolerance :   1.0000e-08
  Last MAX-Density change    ...    2.4471e-02  Tolerance :   1.0000e-07
  Last RMS-Density change    ...    6.0496e-05  Tolerance :   5.0000e-09
  Last DIIS Error            ...    1.9228e-03  Tolerance :   5.0000e-07
  Last Orbital Gradient      ...    1.0445e-06  Tolerance :   1.0000e-05
  Last Orbital Rotation      ...    3.8740e-07  Tolerance :   1.0000e-05


----------------
ORBITAL ENERGIES
----------------

  NO   OCC          E(Eh)            E(eV) 
   0   2.0000     -78.847226     -2145.5421 
   1   2.0000     -19.954144      -542.9799 
   2   2.0000     -19.949818      -542.8622 
   3   2.0000     -19.860310      -540.4265 
   4   2.0000     -19.859516      -540.4049 
   5   2.0000     -10.812444      -294.2216 
   6   2.0000     -10.810602      -294.1714 
   7   2.0000      -7.126719      -193.9279 
   8   2.0000      -5.125018      -139.4588 
   9   2.0000      -5.123915      -139.4288 
  10   2.0000      -5.121386      -139.3600 
  11   2.0000      -1.222189       -33.2574 
  12   2.0000      -1.177303       -32.0361 
  13   2.0000      -1.082378       -29.4530 
  14   2.0000      -1.038224       -28.2515 
  15   2.0000      -0.817287       -22.2395 
  16   2.0000      -0.780796       -21.2465 
  17   2.0000      -0.620722       -16.8907 
  18   2.0000      -0.564777       -15.3684 
  19   2.0000      -0.529568       -14.4103 
  20   2.0000      -0.526058       -14.3148 
  21   2.0000      -0.514959       -14.0128 
  22   2.0000      -0.487475       -13.2649 
  23   2.0000      -0.470809       -12.8114 
  24   2.0000      -0.420479       -11.4418 
  25   2.0000      -0.395709       -10.7678 
  26   2.0000      -0.386553       -10.5186 
  27   2.0000      -0.354111        -9.6359 
  28   2.0000      -0.348149        -9.4736 
  29   2.0000      -0.332895        -9.0585 
  30   2.0000      -0.318632        -8.6704 
  31   2.0000      -0.293547        -7.9878 
  32   2.0000      -0.276600        -7.5267 
  33   0.0000       0.054688         1.4881 
  34   0.0000       0.068145         1.8543 
  35   0.0000       0.075143         2.0447 
  36   0.0000       0.084868         2.3094 
  37   0.0000       0.086947         2.3660 
  38   0.0000       0.092834         2.5261 
  39   0.0000       0.101384         2.7588 
  40   0.0000       0.106076         2.8865 
  41   0.0000       0.109285         2.9738 
  42   0.0000       0.112285         3.0554 
  43   0.0000       0.120511         3.2793 
*Only the first 10 virtual orbitals were printed.

                    ********************************
                    * MULLIKEN POPULATION ANALYSIS *
                    ********************************

-----------------------
MULLIKEN ATOMIC CHARGES
-----------------------
   0 C :   -0.130250
   1 C :   -0.245726
   2 O :   -0.456060
   3 O :   -0.814376
   4 O :   -0.789313
   5 O :   -0.552957
   6 P :    0.948556
   7 H :    0.043635
   8 H :    0.169252
   9 H :    0.197681
  10 H :   -0.194370
  11 H :    0.354677
  12 H :    0.330388
  13 C :    0.005285
  14 C :   -0.001861
  15 H :   -0.019721
  16 H :    0.011137
  17 N :    0.049195
  18 H :   -0.042053
  19 H :    0.055503
  20 H :    0.077969
  21 H :   -0.001356
  22 H :   -0.000095
  23 H :    0.002414
  24 C :   -0.002205
  25 N :   -0.000235
  26 N :   -0.003734
  27 H :   -0.035861
  28 C :   -0.015663
  29 C :    0.013870
  30 H :    0.016058
  31 C :    0.007352
  32 H :    0.023569
  33 H :    0.000331
  34 H :    0.000191
  35 H :   -0.001225
Sum of atomic charges:   -1.0000000

--------------------------------
MULLIKEN REDUCED ORBITAL CHARGES
--------------------------------
  0 C s       :     3.187240  s :     3.187240
      pz      :     1.066427  p :     2.796309
      px      :     0.730298
      py      :     0.999585
      dz2     :     0.022852  d :     0.129969
      dxz     :     0.013146
      dyz     :     0.019397
      dx2y2   :     0.034015
      dxy     :     0.040559
      f0      :     0.001939  f :     0.015027
      f+1     :     0.001566
      f-1     :     0.001230
      f+2     :     0.001269
      f-2     :     0.001669
      f+3     :     0.004898
      f-3     :     0.002456
      g0      :     0.000136  g :     0.001704
      g+1     :     0.000213
      g-1     :     0.000102
      g+2     :     0.000107
      g-2     :     0.000151
      g+3     :     0.000076
      g-3     :     0.000217
      g+4     :     0.000391
      g-4     :     0.000311

  1 C s       :     3.200966  s :     3.200966
      pz      :     0.946206  p :     2.893805
      px      :     1.031813
      py      :     0.915786
      dz2     :     0.011830  d :     0.134314
      dxz     :     0.041523
      dyz     :     0.025061
      dx2y2   :     0.018505
      dxy     :     0.037395
      f0      :     0.001435  f :     0.014942
      f+1     :     0.001341
      f-1     :     0.002519
      f+2     :     0.003049
      f-2     :     0.003402
      f+3     :     0.001508
      f-3     :     0.001688
      g0      :     0.000120  g :     0.001698
      g+1     :     0.000112
      g-1     :     0.000237
      g+2     :     0.000138
      g-2     :     0.000307
      g+3     :     0.000282
      g-3     :     0.000321
      g+4     :     0.000091
      g-4     :     0.000089

  2 O s       :     3.803600  s :     3.803600
      pz      :     1.536036  p :     4.654431
      px      :     1.424035
      py      :     1.694359
      dz2     :     0.001770  d :    -0.006213
      dxz     :    -0.008351
      dyz     :    -0.001893
      dx2y2   :     0.004136
      dxy     :    -0.001875
      f0      :     0.000615  f :     0.004086
      f+1     :     0.000513
      f-1     :     0.000456
      f+2     :     0.000372
      f-2     :     0.000610
      f+3     :     0.000670
      f-3     :     0.000849
      g0      :     0.000022  g :     0.000157
      g+1     :     0.000024
      g-1     :     0.000014
      g+2     :     0.000016
      g-2     :     0.000021
      g+3     :     0.000003
      g-3     :     0.000011
      g+4     :     0.000021
      g-4     :     0.000024

  3 O s       :     3.881007  s :     3.881007
      pz      :     1.688301  p :     4.909856
      px      :     1.629125
      py      :     1.592430
      dz2     :     0.003508  d :     0.021232
      dxz     :     0.003782
      dyz     :     0.003692
      dx2y2   :     0.006657
      dxy     :     0.003593
      f0      :     0.000160  f :     0.002207
      f+1     :     0.000293
      f-1     :     0.000314
      f+2     :     0.000345
      f-2     :     0.000358
      f+3     :     0.000338
      f-3     :     0.000399
      g0      :     0.000007  g :     0.000074
      g+1     :     0.000005
      g-1     :     0.000006
      g+2     :     0.000002
      g-2     :     0.000012
      g+3     :     0.000012
      g-3     :     0.000012
      g+4     :     0.000009
      g-4     :     0.000010

  4 O s       :     3.884859  s :     3.884859
      pz      :     1.632255  p :     4.891523
      px      :     1.538621
      py      :     1.720647
      dz2     :     0.002184  d :     0.010697
      dxz     :     0.004186
      dyz     :     0.000491
      dx2y2   :     0.003715
      dxy     :     0.000121
      f0      :     0.000188  f :     0.002164
      f+1     :     0.000513
      f-1     :     0.000126
      f+2     :     0.000377
      f-2     :     0.000375
      f+3     :     0.000320
      f-3     :     0.000264
      g0      :     0.000006  g :     0.000070
      g+1     :     0.000010
      g-1     :     0.000002
      g+2     :     0.000008
      g-2     :     0.000008
      g+3     :     0.000012
      g-3     :     0.000012
      g+4     :     0.000007
      g-4     :     0.000006

  5 O s       :     3.855117  s :     3.855117
      pz      :     1.599814  p :     4.684290
      px      :     1.647387
      py      :     1.437089
      dz2     :     0.001393  d :     0.009311
      dxz     :     0.002082
      dyz     :    -0.000440
      dx2y2   :     0.003593
      dxy     :     0.002683
      f0      :     0.000317  f :     0.004083
      f+1     :     0.000262
      f-1     :     0.000430
      f+2     :     0.000587
      f-2     :     0.001024
      f+3     :     0.000782
      f-3     :     0.000681
      g0      :     0.000016  g :     0.000156
      g+1     :     0.000008
      g-1     :     0.000017
      g+2     :     0.000013
      g-2     :     0.000036
      g+3     :     0.000027
      g-3     :     0.000021
      g+4     :     0.000009
      g-4     :     0.000008

  6 P s       :     5.207575  s :     5.207575
      pz      :     2.599083  p :     7.893923
      px      :     2.634184
      py      :     2.660656
      dz2     :     0.153125  d :     0.765116
      dxz     :     0.135331
      dyz     :     0.142829
      dx2y2   :     0.185382
      dxy     :     0.148449
      f0      :     0.016804  f :     0.159078
      f+1     :     0.030797
      f-1     :     0.020327
      f+2     :     0.025765
      f-2     :     0.022767
      f+3     :     0.013444
      f-3     :     0.029173
      g0      :     0.003476  g :     0.025751
      g+1     :     0.002743
      g-1     :     0.002073
      g+2     :     0.002424
      g-2     :     0.003379
      g+3     :     0.003283
      g-3     :     0.002741
      g+4     :     0.002598
      g-4     :     0.003034

  7 H s       :     0.900763  s :     0.900763
      pz      :     0.037308  p :     0.052174
      px      :     0.002786
      py      :     0.012081
      dz2     :     0.000649  d :     0.003217
      dxz     :     0.001079
      dyz     :     0.001118
      dx2y2   :     0.000105
      dxy     :     0.000266
      f0      :     0.000044  f :     0.000211
      f+1     :     0.000051
      f-1     :     0.000073
      f+2     :     0.000016
      f-2     :     0.000025
      f+3     :     0.000002
      f-3     :     0.000002

  8 H s       :     0.775647  s :     0.775647
      pz      :     0.033827  p :     0.051188
      px      :     0.010252
      py      :     0.007109
      dz2     :     0.001298  d :     0.003693
      dxz     :     0.000234
      dyz     :     0.000466
      dx2y2   :     0.000508
      dxy     :     0.001186
      f0      :     0.000027  f :     0.000221
      f+1     :     0.000002
      f-1     :     0.000090
      f+2     :     0.000009
      f-2     :     0.000026
      f+3     :     0.000043
      f-3     :     0.000024

  9 H s       :     0.745509  s :     0.745509
      pz      :     0.010755  p :     0.052780
      px      :     0.022094
      py      :     0.019931
      dz2     :     0.000645  d :     0.003802
      dxz     :     0.000746
      dyz     :     0.000656
      dx2y2   :     0.001229
      dxy     :     0.000526
      f0      :     0.000023  f :     0.000228
      f+1     :     0.000038
      f-1     :     0.000032
      f+2     :     0.000005
      f-2     :     0.000047
      f+3     :     0.000059
      f-3     :     0.000023

 10 H s       :     1.106689  s :     1.106689
      pz      :     0.021125  p :     0.084320
      px      :     0.027122
      py      :     0.036073
      dz2     :     0.000493  d :     0.003151
      dxz     :     0.000525
      dyz     :     0.000654
      dx2y2   :     0.000776
      dxy     :     0.000703
      f0      :     0.000004  f :     0.000210
      f+1     :     0.000017
      f-1     :     0.000036
      f+2     :     0.000053
      f-2     :     0.000026
      f+3     :     0.000028
      f-3     :     0.000046

 11 H s       :     0.631802  s :     0.631802
      pz      :     0.008586  p :     0.009701
      px      :    -0.012371
      py      :     0.013486
      dz2     :     0.000804  d :     0.003600
      dxz     :     0.000666
      dyz     :     0.000693
      dx2y2   :     0.000785
      dxy     :     0.000652
      f0      :     0.000007  f :     0.000219
      f+1     :     0.000047
      f-1     :     0.000034
      f+2     :     0.000058
      f-2     :     0.000025
      f+3     :     0.000016
      f-3     :     0.000033

 12 H s       :     0.631824  s :     0.631824
      pz      :     0.013542  p :     0.033929
      px      :     0.016947
      py      :     0.003440
      dz2     :     0.000803  d :     0.003637
      dxz     :     0.000615
      dyz     :     0.000762
      dx2y2   :     0.000657
      dxy     :     0.000800
      f0      :     0.000006  f :     0.000222
      f+1     :     0.000057
      f-1     :     0.000027
      f+2     :     0.000048
      f-2     :     0.000034
      f+3     :     0.000023
      f-3     :     0.000027

 13 C s       :    -0.000253  s :    -0.000253
      pz      :    -0.003658  p :    -0.004440
      px      :     0.001055
      py      :    -0.001837
      dz2     :    -0.000896  d :    -0.000592
      dxz     :    -0.000226
      dyz     :     0.000514
      dx2y2   :     0.000055
      dxy     :    -0.000039
      f0      :     0.000000  f :     0.000000
      f+1     :     0.000000
      f-1     :     0.000000
      f+2     :     0.000000
      f-2     :    -0.000000
      f+3     :    -0.000000
      f-3     :    -0.000000
      g0      :    -0.000000  g :    -0.000000
      g+1     :     0.000000
      g-1     :    -0.000000
      g+2     :    -0.000000
      g-2     :     0.000000
      g+3     :    -0.000000
      g-3     :    -0.000000
      g+4     :     0.000000
      g-4     :    -0.000000

 14 C s       :    -0.001176  s :    -0.001176
      pz      :    -0.005835  p :     0.001110
      px      :     0.003765
      py      :     0.003180
      dz2     :     0.004474  d :     0.001922
      dxz     :    -0.000561
      dyz     :    -0.002508
      dx2y2   :     0.000264
      dxy     :     0.000253
      f0      :     0.000005  f :     0.000005
      f+1     :    -0.000001
      f-1     :     0.000001
      f+2     :     0.000000
      f-2     :    -0.000000
      f+3     :    -0.000000
      f-3     :     0.000000
      g0      :     0.000000  g :     0.000000
      g+1     :     0.000000
      g-1     :     0.000000
      g+2     :     0.000000
      g-2     :    -0.000000
      g+3     :    -0.000000
      g-3     :     0.000000
      g+4     :     0.000000
      g-4     :    -0.000000

 15 H s       :     0.015533  s :     0.015533
      pz      :     0.001687  p :     0.004186
      px      :     0.002465
      py      :     0.000033
      dz2     :     0.000001  d :     0.000002
      dxz     :     0.000001
      dyz     :     0.000000
      dx2y2   :     0.000000
      dxy     :    -0.000000
      f0      :    -0.000000  f :    -0.000000
      f+1     :    -0.000000
      f-1     :    -0.000000
      f+2     :     0.000000
      f-2     :     0.000000
      f+3     :     0.000000
      f-3     :    -0.000000

 16 H s       :    -0.015487  s :    -0.015487
      pz      :     0.001909  p :     0.004349
      px      :     0.000637
      py      :     0.001803
      dz2     :     0.000000  d :     0.000001
      dxz     :     0.000000
      dyz     :     0.000000
      dx2y2   :     0.000000
      dxy     :    -0.000000
      f0      :    -0.000000  f :    -0.000000
      f+1     :    -0.000000
      f-1     :    -0.000000
      f+2     :    -0.000000
      f-2     :    -0.000000
      f+3     :    -0.000000
      f-3     :     0.000000

 17 N s       :    -0.060586  s :    -0.060586
      pz      :     0.006639  p :     0.004132
      px      :    -0.003434
      py      :     0.000926
      dz2     :     0.007193  d :     0.007285
      dxz     :    -0.000708
      dyz     :     0.000362
      dx2y2   :     0.000152
      dxy     :     0.000285
      f0      :    -0.000013  f :    -0.000025
      f+1     :    -0.000007
      f-1     :    -0.000003
      f+2     :    -0.000001
      f-2     :    -0.000002
      f+3     :     0.000000
      f-3     :     0.000000
      g0      :    -0.000000  g :    -0.000000
      g+1     :    -0.000000
      g-1     :    -0.000000
      g+2     :     0.000000
      g-2     :    -0.000000
      g+3     :    -0.000000
      g-3     :    -0.000000
      g+4     :     0.000000
      g-4     :    -0.000000

 18 H s       :     0.033033  s :     0.033033
      pz      :     0.006867  p :     0.009027
      px      :    -0.000072
      py      :     0.002232
      dz2     :    -0.000007  d :    -0.000007
      dxz     :     0.000000
      dyz     :     0.000001
      dx2y2   :    -0.000001
      dxy     :    -0.000000
      f0      :    -0.000000  f :    -0.000000
      f+1     :    -0.000000
      f-1     :    -0.000000
      f+2     :    -0.000000
      f-2     :    -0.000000
      f+3     :    -0.000000
      f-3     :    -0.000000

 19 H s       :    -0.045004  s :    -0.045004
      pz      :    -0.000511  p :    -0.010486
      px      :    -0.010739
      py      :     0.000764
      dz2     :    -0.000000  d :    -0.000013
      dxz     :    -0.000013
      dyz     :     0.000005
      dx2y2   :    -0.000003
      dxy     :    -0.000002
      f0      :     0.000000  f :     0.000000
      f+1     :     0.000000
      f-1     :     0.000000
      f+2     :    -0.000000
      f-2     :     0.000000
      f+3     :     0.000000
      f-3     :    -0.000000

 20 H s       :     0.022749  s :     0.022749
      pz      :    -0.075826  p :    -0.100417
      px      :    -0.001446
      py      :    -0.023145
      dz2     :    -0.000268  d :    -0.000307
      dxz     :     0.000024
      dyz     :    -0.000061
      dx2y2   :     0.000006
      dxy     :    -0.000008
      f0      :     0.000001  f :     0.000006
      f+1     :     0.000003
      f-1     :     0.000001
      f+2     :     0.000001
      f-2     :     0.000001
      f+3     :     0.000000
      f-3     :     0.000000

 21 H s       :     0.000987  s :     0.000987
      pz      :     0.000161  p :     0.000369
      px      :     0.000197
      py      :     0.000011
      dz2     :    -0.000000  d :    -0.000000
      dxz     :     0.000000
      dyz     :     0.000000
      dx2y2   :    -0.000000
      dxy     :     0.000000
      f0      :    -0.000000  f :    -0.000000
      f+1     :    -0.000000
      f-1     :    -0.000000
      f+2     :    -0.000000
      f-2     :    -0.000000
      f+3     :    -0.000000
      f-3     :    -0.000000

 22 H s       :     0.000178  s :     0.000178
      pz      :     0.000019  p :    -0.000083
      px      :     0.000033
      py      :    -0.000135
      dz2     :    -0.000000  d :    -0.000000
      dxz     :     0.000000
      dyz     :     0.000000
      dx2y2   :     0.000000
      dxy     :     0.000000
      f0      :    -0.000000  f :    -0.000000
      f+1     :    -0.000000
      f-1     :    -0.000000
      f+2     :    -0.000000
      f-2     :    -0.000000
      f+3     :    -0.000000
      f-3     :    -0.000000

 23 H s       :    -0.001990  s :    -0.001990
      pz      :    -0.000294  p :    -0.000423
      px      :    -0.000009
      py      :    -0.000120
      dz2     :    -0.000000  d :    -0.000000
      dxz     :     0.000000
      dyz     :     0.000000
      dx2y2   :    -0.000000
      dxy     :    -0.000000
      f0      :    -0.000000  f :    -0.000000
      f+1     :    -0.000000
      f-1     :    -0.000000
      f+2     :    -0.000000
      f-2     :    -0.000000
      f+3     :    -0.000000
      f-3     :    -0.000000

 24 C s       :     0.000018  s :     0.000018
      pz      :    -0.000064  p :     0.001772
      px      :     0.000413
      py      :     0.001422
      dz2     :     0.000038  d :     0.000415
      dxz     :     0.000028
      dyz     :     0.000381
      dx2y2   :    -0.000068
      dxy     :     0.000036
      f0      :     0.000000  f :    -0.000000
      f+1     :    -0.000000
      f-1     :     0.000000
      f+2     :     0.000000
      f-2     :    -0.000000
      f+3     :    -0.000000
      f-3     :    -0.000000
      g0      :    -0.000000  g :    -0.000000
      g+1     :    -0.000000
      g-1     :     0.000000
      g+2     :    -0.000000
      g-2     :     0.000000
      g+3     :    -0.000000
      g-3     :    -0.000000
      g+4     :     0.000000
      g-4     :     0.000000

 25 N s       :     0.000076  s :     0.000076
      pz      :    -0.000118  p :    -0.000066
      px      :     0.000277
      py      :    -0.000225
      dz2     :    -0.000041  d :     0.000224
      dxz     :    -0.000032
      dyz     :     0.000100
      dx2y2   :     0.000021
      dxy     :     0.000177
      f0      :     0.000000  f :    -0.000000
      f+1     :     0.000000
      f-1     :    -0.000000
      f+2     :     0.000000
      f-2     :    -0.000000
      f+3     :    -0.000000
      f-3     :    -0.000000
      g0      :    -0.000000  g :    -0.000000
      g+1     :    -0.000000
      g-1     :    -0.000000
      g+2     :    -0.000000
      g-2     :    -0.000000
      g+3     :    -0.000000
      g-3     :    -0.000000
      g+4     :    -0.000000
      g-4     :    -0.000000

 26 N s       :     0.011523  s :     0.011523
      pz      :    -0.001028  p :    -0.007318
      px      :     0.001337
      py      :    -0.007627
      dz2     :     0.001474  d :    -0.000458
      dxz     :    -0.000582
      dyz     :    -0.000710
      dx2y2   :    -0.000622
      dxy     :    -0.000019
      f0      :     0.000004  f :    -0.000013
      f+1     :    -0.000001
      f-1     :    -0.000005
      f+2     :     0.000004
      f-2     :    -0.000012
      f+3     :    -0.000004
      f-3     :     0.000000
      g0      :     0.000000  g :    -0.000000
      g+1     :     0.000000
      g-1     :    -0.000000
      g+2     :    -0.000000
      g-2     :    -0.000000
      g+3     :    -0.000000
      g-3     :     0.000000
      g+4     :    -0.000000
      g-4     :    -0.000000

 27 H s       :     0.048238  s :     0.048238
      pz      :    -0.015593  p :    -0.012032
      px      :     0.008763
      py      :    -0.005203
      dz2     :    -0.000034  d :    -0.000353
      dxz     :    -0.000076
      dyz     :    -0.000093
      dx2y2   :    -0.000007
      dxy     :    -0.000142
      f0      :     0.000000  f :     0.000007
      f+1     :    -0.000000
      f-1     :     0.000001
      f+2     :     0.000001
      f-2     :     0.000003
      f+3     :     0.000003
      f-3     :    -0.000001

 28 C s       :     0.000273  s :     0.000273
      pz      :     0.006184  p :     0.011608
      px      :     0.000103
      py      :     0.005321
      dz2     :    -0.000440  d :     0.003783
      dxz     :    -0.000678
      dyz     :     0.003278
      dx2y2   :     0.001459
      dxy     :     0.000164
      f0      :     0.000000  f :    -0.000000
      f+1     :     0.000000
      f-1     :    -0.000000
      f+2     :    -0.000000
      f-2     :    -0.000000
      f+3     :    -0.000000
      f-3     :    -0.000000
      g0      :     0.000000  g :    -0.000000
      g+1     :    -0.000000
      g-1     :    -0.000000
      g+2     :    -0.000000
      g-2     :    -0.000000
      g+3     :    -0.000000
      g-3     :    -0.000000
      g+4     :    -0.000000
      g-4     :    -0.000000

 29 C s       :    -0.000862  s :    -0.000862
      pz      :    -0.006377  p :    -0.012905
      px      :     0.004241
      py      :    -0.010769
      dz2     :     0.001310  d :    -0.000100
      dxz     :     0.001076
      dyz     :     0.001159
      dx2y2   :    -0.004105
      dxy     :     0.000460
      f0      :    -0.000004  f :    -0.000004
      f+1     :     0.000000
      f-1     :    -0.000000
      f+2     :    -0.000001
      f-2     :     0.000005
      f+3     :    -0.000000
      f-3     :    -0.000004
      g0      :    -0.000000  g :    -0.000000
      g+1     :     0.000000
      g-1     :    -0.000000
      g+2     :     0.000000
      g-2     :     0.000000
      g+3     :    -0.000000
      g-3     :    -0.000000
      g+4     :    -0.000000
      g-4     :     0.000000

 30 H s       :    -0.007044  s :    -0.007044
      pz      :    -0.001756  p :    -0.009031
      px      :    -0.000322
      py      :    -0.006954
      dz2     :     0.000004  d :     0.000017
      dxz     :    -0.000000
      dyz     :     0.000006
      dx2y2   :     0.000002
      dxy     :     0.000005
      f0      :     0.000000  f :     0.000000
      f+1     :    -0.000000
      f-1     :     0.000000
      f+2     :     0.000000
      f-2     :     0.000000
      f+3     :     0.000000
      f-3     :     0.000000

 31 C s       :    -0.002827  s :    -0.002827
      pz      :    -0.010414  p :    -0.005603
      px      :    -0.011453
      py      :     0.016263
      dz2     :    -0.000542  d :     0.001076
      dxz     :     0.000243
      dyz     :     0.000646
      dx2y2   :     0.000744
      dxy     :    -0.000015
      f0      :     0.000001  f :     0.000002
      f+1     :    -0.000001
      f-1     :     0.000001
      f+2     :     0.000000
      f-2     :     0.000001
      f+3     :     0.000000
      f-3     :     0.000000
      g0      :     0.000000  g :     0.000000
      g+1     :     0.000000
      g-1     :     0.000000
      g+2     :     0.000000
      g-2     :     0.000000
      g+3     :     0.000000
      g-3     :     0.000000
      g+4     :     0.000000
      g-4     :     0.000000

 32 H s       :    -0.021248  s :    -0.021248
      pz      :    -0.001268  p :    -0.002321
      px      :    -0.002695
      py      :     0.001642
      dz2     :    -0.000000  d :     0.000000
      dxz     :     0.000000
      dyz     :    -0.000000
      dx2y2   :     0.000000
      dxy     :    -0.000000
      f0      :    -0.000000  f :    -0.000000
      f+1     :    -0.000000
      f-1     :     0.000000
      f+2     :     0.000000
      f-2     :    -0.000000
      f+3     :    -0.000000
      f-3     :    -0.000000

 33 H s       :    -0.000266  s :    -0.000266
      pz      :    -0.000076  p :    -0.000065
      px      :    -0.000004
      py      :     0.000015
      dz2     :    -0.000000  d :    -0.000000
      dxz     :     0.000000
      dyz     :    -0.000000
      dx2y2   :    -0.000000
      dxy     :    -0.000000
      f0      :     0.000000  f :    -0.000000
      f+1     :    -0.000000
      f-1     :    -0.000000
      f+2     :    -0.000000
      f-2     :    -0.000000
      f+3     :    -0.000000
      f-3     :    -0.000000

 34 H s       :    -0.000121  s :    -0.000121
      pz      :    -0.000047  p :    -0.000070
[...]
      f-1     :     0.000000
      f+2     :     0.000000
      f-2     :     0.000000
      f+3     :     0.000000
      f-3     :     0.000000

 35 H s       :     0.000012  s :     0.000012
      pz      :     0.000002  p :     0.000003
      px      :     0.000001
      py      :     0.000001
      dz2     :     0.000000  d :     0.000000
      dxz     :     0.000000
      dyz     :     0.000000
      dx2y2   :     0.000000
      dxy     :     0.000000
      f0      :     0.000000  f :     0.000000
      f+1     :     0.000000
      f-1     :     0.000000
      f+2     :     0.000000
      f-2     :     0.000000
      f+3     :     0.000000
      f-3     :     0.000000



                      *****************************
                      * MAYER POPULATION ANALYSIS *
                      *****************************

  NA   - Mulliken gross atomic population
  ZA   - Total nuclear charge
  QA   - Mulliken gross atomic charge
  VA   - Mayer's total valence
  BVA  - Mayer's bonded valence
  FA   - Mayer's free valence

  ATOM       NA         ZA         QA         VA         BVA        FA
  0 C      6.1302     6.0000    -0.1302     3.6185     3.6185     0.0000
  1 C      6.2457     6.0000    -0.2457     3.7433     3.7433     0.0000
  2 O      8.4561     8.0000    -0.4561     1.3306     1.3306     0.0000
  3 O      8.8144     8.0000    -0.8144     1.6173     1.6173     0.0000
  4 O      8.7893     8.0000    -0.7893     1.5255     1.5255     0.0000
  5 O      8.5530     8.0000    -0.5530     1.4234     1.4234     0.0000
  6 P     14.0514    15.0000     0.9486     5.2607     5.2607     0.0000
  7 H      0.9564     1.0000     0.0436     1.1033     1.1033     0.0000
  8 H      0.8307     1.0000     0.1693     1.0340     1.0340     0.0000
  9 H      0.8023     1.0000     0.1977     1.0604     1.0604    -0.0000
 10 H      1.1944     1.0000    -0.1944     1.3399     1.3399    -0.0000
 11 H      0.6453     1.0000     0.3547     0.7068     0.7068     0.0000
 12 H      0.6696     1.0000     0.3304     0.8787     0.8787     0.0000
 13 C     -0.0053     0.0000     0.0053    -0.0106    -0.0106    -0.0000
 14 C      0.0019     0.0000    -0.0019     0.0036     0.0036    -0.0000
 15 H      0.0197     0.0000    -0.0197     0.0391     0.0391    -0.0000
 16 H     -0.0111     0.0000     0.0111    -0.0224    -0.0224    -0.0000
 17 N     -0.0492     0.0000     0.0492    -0.1008    -0.1008     0.0000
 18 H      0.0421     0.0000    -0.0421     0.0824     0.0824    -0.0000
 19 H     -0.0555     0.0000     0.0555    -0.1147    -0.1147    -0.0000
 20 H     -0.0780     0.0000     0.0780    -0.1665    -0.1665     0.0000
 21 H      0.0014     0.0000    -0.0014     0.0027     0.0027     0.0000
 22 H      0.0001     0.0000    -0.0001     0.0002     0.0002     0.0000
 23 H     -0.0024     0.0000     0.0024    -0.0048    -0.0048    -0.0000
 24 C      0.0022     0.0000    -0.0022     0.0044     0.0044     0.0000
 25 N      0.0002     0.0000    -0.0002     0.0005     0.0005    -0.0000
 26 N      0.0037     0.0000    -0.0037     0.0073     0.0073    -0.0000
 27 H      0.0359     0.0000    -0.0359     0.0692     0.0692     0.0000
 28 C      0.0157     0.0000    -0.0157     0.0311     0.0311     0.0000
 29 C     -0.0139     0.0000     0.0139    -0.0281    -0.0281    -0.0000
 30 H     -0.0161     0.0000     0.0161    -0.0324    -0.0324    -0.0000
 31 C     -0.0074     0.0000     0.0074    -0.0149    -0.0149     0.0000
 32 H     -0.0236     0.0000     0.0236    -0.0477    -0.0477     0.0000
 33 H     -0.0003     0.0000     0.0003    -0.0007    -0.0007     0.0000
 34 H     -0.0002     0.0000     0.0002    -0.0004    -0.0004    -0.0000
 35 H      0.0012     0.0000    -0.0012     0.0024     0.0024     0.0000

  Mayer bond orders larger than 0.100000
B(  0-C ,  2-O ) :   0.7458 B(  0-C ,  7-H ) :   1.1022 B(  0-C ,  8-H ) :   0.8939 
B(  0-C ,  9-H ) :   0.9445 B(  1-C ,  5-O ) :   0.8620 B(  1-C , 10-H ) :   1.3464 
B(  1-C , 11-H ) :   0.7660 B(  1-C , 12-H ) :   0.7915 B(  2-O ,  5-O ) :  -0.1112 
B(  2-O ,  6-P ) :   0.8488 B(  3-O ,  6-P ) :   1.9469 B(  4-O ,  6-P ) :   1.6919 
B(  5-O ,  6-P ) :   0.8809 

-------
TIMINGS
-------

Total SCF time: 0 days 0 hours 6 min 23 sec 

Total time                  ....     383.072 sec
Sum of individual times     ....     383.676 sec  (100.2%)

SCF preparation             ....       1.260 sec  (  0.3%)
Fock matrix formation       ....     364.140 sec  ( 95.1%)
  Startup                   ....       0.595 sec  (  0.2% of F)
  Split-RI-J                ....      17.159 sec  (  4.7% of F)
  Chain of spheres X        ....     280.362 sec  ( 77.0% of F)
  XC integration            ....      40.738 sec  ( 11.2% of F)
    XC Preparation          ....       0.000 sec  (  0.0% of XC)
    Basis function eval.    ....       4.486 sec  ( 11.0% of XC)
    Density eval.           ....      14.722 sec  ( 36.1% of XC)
    XC-Functional eval.     ....       0.097 sec  (  0.2% of XC)
    XC-Potential eval.      ....      17.197 sec  ( 42.2% of XC)
  CPCM terms                ....      23.846 sec  (  6.5% of F)
Diagonalization             ....       0.000 sec  (  0.0%)
Density matrix formation    ....       1.559 sec  (  0.4%)
Total Energy calculation    ....       0.822 sec  (  0.2%)
Population analysis         ....       0.682 sec  (  0.2%)
Orbital Transformation      ....       2.211 sec  (  0.6%)
Orbital Orthonormalization  ....       0.000 sec  (  0.0%)
DIIS solution               ....       8.241 sec  (  2.2%)
SOSCF solution              ....       4.592 sec  (  1.2%)
Finished LeanSCF after 383.5 sec

Maximum memory used throughout the entire LEANSCF-calculation: 364.9 MB


           ************************************************************
           *        Program running with 10 parallel MPI-processes    *
           *              working on a common directory               *
           ************************************************************

------------------------------------------------------------------------------
                                ORCA  MP2 
------------------------------------------------------------------------------

Freezing NCore=22 chemical core electrons

-------------
RI-MP2 ENERGY
-------------
Dimension of the orbital basis            ... 1693
Dimension of the AuxC basis               ... 3838
Memory devoted to MP2                     ... 2000 MB   
Data format for matrix containers         ... DOUBLE
Compression type for matrix containers    ... UNCOMPRESSED
Scaling for aa/bb pairs                   ...   5.660e-02
Scaling for ab pairs                      ...   5.935e-01
Overall scaling of the MP2 energy         ...   1.000e+00

-----------------------
SHARK RI TRANSFORMATION
-----------------------

Number of basis functions                ...   1693
Number of aux functions                  ...   3838
Number of operators                      ...      1
Generation of IJK                        ... NO
Generation of IAK                        ... YES
Generation of ABK                        ... NO
Orbital Range Operator  0:   11-  32 to   33-1692

Aux basis identifier                     ...   AUXC
Contraction scheme used                  ... SEGMENTED
Do orthogonalization                     ... YES
All operator combinations                ... NO
Transpose (ia|K)                         ... NO
Integral generator used                  ... LIBINT
Starting integral generation + trafo... 
Half trafo (segmented) done. Total time = 28.5 sec. integrals= 12.2 sec trafo= 15.4 sec
Integral generation and half transformation done ( 28.5 sec)

Reading or making V^(-1/2)          ... done (  0.2 sec)
Sorting IAK integrals               ... done (  7.3 sec)

SHARK RI integral transformation done. Total time = 36.2 sec.

Opening buffers                              ... done

Starting loop over batches of integrals:

Operator 0  - window                       ... ( 11- 32)x( 33-1692)
Operator 0  - Memory available             ...  2000 MB
Operator 0  - Memory needed per MO         ...  48.6 MB
Operator 0  - Number of orbitals per batch ... 3
Operator 0  - Number of batches            ... 1

OPERATOR  0   PASS   0:  MOs    11 ...   13 +   14 ...   16 +   17 ...   19 +   20 ...   22
                            +   23 ...   25 +   26 ...   28 +   29 ...   31 +   32 ...   32
  Reading integrals       ... ok
  Internal MO  13
Time spent in pair loops =    36.540 sec
Deleting buffers (Ka|jb) ...done

-----------------------------------------------
 RI-MP2 CORRELATION ENERGY:     -0.809907021 Eh
-----------------------------------------------


-------
TIMINGS
-------

Total time                :   79.431 sec
Integral trafo            :   36.238 sec ( 45.6%)
I/O of integrals          :    0.121 sec (  0.2%)
K(i,j) operators          :    5.775 sec (  7.3%)
T(i,j) pair energies      :    0.170 sec (  0.2%)
V**(-1/2)                 :    6.653 sec (  8.4%)


---------------------------------------
MP2 TOTAL ENERGY:     -721.664210169 Eh
---------------------------------------

Maximum memory used throughout the entire MP2-calculation: 513.1 MB


-------------------------------------------------------------------------------
                          DFT DISPERSION CORRECTION                            
                                                                               
                                DFTD4 V3.4.0                                   
-------------------------------------------------------------------------------
The REV-DSD-PBEP86-2021 functional is recognized
A user input s6-coefficient scaling factor has been recognized
A user input a1-coefficient scaling factor has been recognized
A user input s8-coefficient scaling factor has been recognized
A user input a2-coefficient scaling factor has been recognized
A user input s9-coefficient scaling factor has been recognized
Active option DFTDOPT                   ...         5   

-------------------------   ----------------
Dispersion correction           -0.008121451
-------------------------   ----------------


-------------------------   --------------------
FINAL SINGLE POINT ENERGY      -721.672331619661
-------------------------   --------------------



           ************************************************************
           *        Program running with 10 parallel MPI-processes    *
           *              working on a common directory               *
           ************************************************************

------------------------------------------------------------------------------
                              ORCA PROPERTY CALCULATIONS
------------------------------------------------------------------------------

GBWName                                 ... pg1_frag.gbw
Number of atoms                         ...     36
Number of basis functions               ...   1693
Max core memory                         ...   2000 MB

Electric properties:
Dipole moment                           ... YES
Quadrupole moment                       ...  NO
Static polarizability (Dipole/Dipole)   ...  NO
Static polarizability (Dipole/Quad.)    ...  NO
Static polarizability (Quad./Quad.)     ...  NO
Static polarizability (Velocity)        ...  NO

Atomic electric properties:
Dipole moment                           ...  NO
Quadrupole moment                       ...  NO
Static polarizability                   ...  NO

Choice of electric origin               ... Center of mass
Position of electric origin             ...     5.473412    -5.815871    -5.322807

General magnetic properties:
Magnetizability                         ...  NO

EPR properties:
g-Tensor (aka g-matrix)                 ...  NO
Zero-Field splitting spin-orbit         ...  NO
Zero-field splitting spin-spin          ...  NO
Hyperfine couplings                     ...  NO (   0 nuclei)
Quadrupole couplings                    ...  NO (   0 nuclei)
Contact density                         ...  NO (   0 nuclei)

NMR properties:
Chemical shifts                         ...  NO (   0 nuclei)
Spin-rotation constants                 ...  NO (   0 nuclei)
Spin-spin couplings                     ...  NO (   0 nuclei,    0 pairs)

Choice of magnetic origin               ... GIAO
Position of magnetic origin             ...     0.000000     0.000000     0.000000

Properties with geometric perturbations:
SCF Hessian                             ...  NO
IR spectrum                             ...  NO
VCD spectrum                            ...  NO
X-ray spectroscopy properties:
SCF XES/XAS/RIXS spectra                ...  NO


-------------
DIPOLE MOMENT
-------------

Method             : SCF
Type of density    : Electron Density
Multiplicity       :   1
Irrep              :   0
Energy             :  -720.8543031483396817 Eh
Relativity type    : 
Basis              : AO
                                X                 Y                 Z
Electronic contribution:      0.981738185       1.527341971       0.520738608
Nuclear contribution   :     -1.106075265      -2.436369165      -2.010621303
                        -----------------------------------------
Total Dipole Moment    :     -0.124337079      -0.909027194      -1.489882695
                        -----------------------------------------
Magnitude (a.u.)       :      1.749725863
Magnitude (Debye)      :      4.447449698



--------------------
Rotational spectrum 
--------------------
 
Rotational constants in cm-1:             0.131193             0.055336             0.052770 
Rotational constants in MHz :          3933.056042          1658.926260          1581.996490 

Dipole components along the rotational axes: 
x,y,z [a.u.] :     0.108930    -1.738059    -0.169784 
x,y,z [Debye]:     0.276877    -4.417794    -0.431557 

 

Dipole moment calculation done in   0.2 sec 

Maximum memory used throughout the entire PROP-calculation: 239.6 MB

--------------------------------
SUGGESTED CITATIONS FOR THIS RUN
--------------------------------

Below you find a list of papers that are relevant to this ORCA run
We neither can nor want to force you to cite these papers, but we appreciate if you do
You receive ORCA, which is the product of decades of hard work by many enthusiastic individuals, for free
The only thing we kindly ask in return is that you cite our papers,
We deeply appreciate it, if you show your appreciation for ORCA by not just citing the generic ORCA reference.

Please note that relegating all ORCA citations to the supporting information does *not* help us.
SI sections are not indexed - citations you put there will not count into any citation statistics
But we need these citations in order to attract the funding resources that allow us to do what we are doing

Therefore, if you are a happy ORCA user, please consider citing a few of the papers listed below in the main body of your paper

In addition to the list printed below, the program has created the file pg1_frag.bibtex that contains the list in bibtex format
You can import this file easily into all common literature databanks and citation aid programs


List of essential papers. We consider these as the minimum necessary citations

  1. Neese,F.
     Software update: the ORCA program system, version 5.0
     WIRES Comput. Molec. Sci., 2022 12(1)e1606
     doi.org/10.1002/wcms.1606

List of papers to cite with high priority. The work reported in these papers was absolutely
necessary for this run to complete.
Our perspective: the developers of density functionals and basis sets usually get cited in chemistry papers
Good! But without the algorithms to do something with them, the functionals or basis sets would not do anything.
Hence, in our opinion, the algorithm design and method developments papers are equally worthy of getting cited

  1. Neese,F.
     An improvement of the resolution of the identity approximation for the formation of the Coulomb matrix
     J. Comp. Chem., 2003 24(14)1740-1747
     doi.org/10.1002/jcc.10318
  2. Neese,F.; Wennmohs,F.; Hansen,A.; Becker,U.
     Efficient, approximate and parallel Hartree-Fock and hybrid DFT calculations. A 'chain-of-spheres' algorithm for the Hartree-Fock exchange
     Chem. Phys., 2009 356(1-3)98-109
     doi.org/10.1016/j.chemphys.2008.10.036
  3. Kossmann,S.; Neese,F.
     Efficient Structure Optimization with Second-Order Many-Body Perturbation Theory: The RIJCOSX-MP2 Method
     J. Theo. Comp. Chem., 2010 6 2325-2338
     doi.org/10.1021/ct100199k
  4. Garcia-Rates,M.; Neese,F.
     Effect of the Solute Cavity on the Solvation Energy and its Derivatives within the Framework of the Gaussian Charge Scheme
     J. Comput. Chem., 2020 41 922-939
     doi.org/10.1002/jcc.26139
  5. Helmich-Paris,B.; de Souza,B.; Neese,F.; Izsák,R.
     An improved chain of spheres for exchange algorithm
     J. Chem. Phys., 2021 155 104109
     doi.org/doi: 10.1063/5.0058766.
  6. Neese,F.
     The SHARK Integral Generation and Digestion System
     J. Comp. Chem., 2022  1-16
     doi.org/10.1002/jcc.26942
  7. Caldeweyher,E.; Bannwarth,C.; Grimme,S.
     Extension of the D3 dispersion coefficient model
     J. Chem. Phys., 2017 147 034112
     doi.org/10.1063/1.4993215
  8. Caldeweyher,E.; Ehlert,S.; Hansen,A.; Neugebauer,H.; Spicher,S.; Bannwarth,C.; Grimme,S.
     A generally applicable atomic-charge dependent London dispersion correction
     J. Chem. Phys., 2019 150 154122
     doi.org/10.1063/1.5090222
  9. Caldeweyher,E.; Mewes,J.; Ehlert,S.; Grimme,S.
     Extension and evaluation of the D4 London-dispersion model for periodic systems
     Phys. Chem. Chem. Phys., 2020 22(16)8499-8512
     doi.org/10.1039/D0CP00502A
 10. Wittmann,L.; Gordiy,I.; Friede,M.; Helmich-Paris,B.; Grimme,S.; Hansen,A.; Bursch,M.
     Extension of the D3 and D4 London Dispersion Corrections to the full Actinides Series
     Phys. Chem. Chem. Phys., 2024 26(32)21379-21394
     doi.org/https://doi.org/10.1039/D4CP01514B 

List of suggested additional citations. These are papers that are important in the 'surrounding' of 
of this run, or papers that preceded the highly important papers. If you like your results we are grateful for a citation.

  1. Izsak,R.; Neese,F.
     An overlap fitted chain of spheres exchange method
     J. Chem. Phys., 2011 135 144105
     doi.org/10.1063/1.3646921
  2. Izsak,R.; Hansen,A.; Neese,F.
     The resolution of identity and chain of spheres approximations for the LPNO-CCSD singles Fock term
     Molec. Phys., 2012 110 2413-2417
     doi.org/10.1080/00268976.2012.687466
  3. Neese,F.
     The ORCA program system
     WIRES Comput. Molec. Sci., 2012 2(1)73-78
     doi.org/10.1002/wcms.81
  4. Izsak,R.; Neese,F.; Klopper,W.
     Robust fitting techniques in the chain of spheres approximation to the Fock exchange: The role of the complementary space
     J. Chem. Phys., 2013 139 
     doi.org/10.1063/1.4819264
  5. Neese,F.
     Software update: the ORCA program system, version 4.0
     WIRES Comput. Molec. Sci., 2018 8(1)1-6
     doi.org/10.1002/wcms.1327
  6. Neese,F.; Wennmohs,F.; Becker,U.; Riplinger,C.
     The ORCA quantum chemistry program package
     J. Chem. Phys., 2020 152 Art. No. L224108
     doi.org/10.1063/5.0004608

List of optional additional citations

  1. Neese,F.
     Approximate second-order SCF convergence for spin unrestricted wavefunctions
     Chem. Phys. Lett., 2000 325(1-3)93-98
     doi.org/10.1016/s0009-2614(00)00662-x

Timings for individual modules:

Sum of individual times          ...      481.273 sec (=   8.021 min)
Startup calculation              ...       10.123 sec (=   0.169 min)   2.1 %
SCF iterations                   ...      388.734 sec (=   6.479 min)  80.8 %
Property calculations            ...        1.494 sec (=   0.025 min)   0.3 %
MP2 module                       ...       80.922 sec (=   1.349 min)  16.8 %
                             ****ORCA TERMINATED NORMALLY****
TOTAL RUN TIME: 0 days 0 hours 8 minutes 2 seconds 57 msec
